<?xml version="1.0"?>
<VTKFile type="UnstructuredGrid" version="0.1" byte_order="LittleEndian">
  <UnstructuredGrid>
    <Piece NumberOfCells="4096" NumberOfPoints="4225">
      <PointData Scalars="pressure_l">
        <DataArray type="Float32" Name="pressure_l" NumberOfComponents="1" format="ascii">
          9.91e+06 9.90994e+06 9.90387e+06 9.90382e+06 9.9099e+06 9.90378e+06 9.90986e+06 9.90375e+06 9.90983e+06 9.90372e+06 9.9098e+06 9.90369e+06
          9.90978e+06 9.90367e+06 9.90975e+06 9.90364e+06 9.90973e+06 9.90362e+06 9.90971e+06 9.9036e+06 9.90968e+06 9.90357e+06 9.90966e+06 9.90355e+06
          9.90964e+06 9.90353e+06 9.90962e+06 9.90351e+06 9.90959e+06 9.90348e+06 9.90957e+06 9.90346e+06 9.90954e+06 9.90343e+06 9.90952e+06 9.90341e+06
          9.90949e+06 9.90338e+06 9.90946e+06 9.90335e+06 9.90943e+06 9.90332e+06 9.9094e+06 9.9033e+06 9.90938e+06 9.90327e+06 9.90936e+06 9.90324e+06
          9.90935e+06 9.90322e+06 9.90939e+06 9.90319e+06 9.90935e+06 9.90314e+06 9.90927e+06 9.90306e+06 9.90916e+06 9.90295e+06 9.90901e+06 9.9028e+06
          9.90882e+06 9.90262e+06 9.90859e+06 9.90239e+06 9.90829e+06 9.90211e+06 9.90793e+06 9.90171e+06 9.90772e+06 9.90158e+06 9.9076e+06 9.90148e+06
          9.90751e+06 9.90139e+06 9.90743e+06 9.90132e+06 9.90737e+06 9.90126e+06 9.9073e+06 9.9012e+06 9.90718e+06 9.90116e+06 9.90714e+06 9.90113e+06
          9.90712e+06 9.90112e+06 9.90714e+06 9.90113e+06 9.90717e+06 9.90116e+06 9.90722e+06 9.90121e+06 9.90731e+06 9.90129e+06 9.90748e+06 9.90139e+06
          9.90779e+06 9.90171e+06 9.90804e+06 9.90196e+06 9.90826e+06 9.90216e+06 9.90844e+06 9.90234e+06 9.9086e+06 9.9025e+06 9.90875e+06 9.90265e+06
          9.90889e+06 9.90278e+06 9.90901e+06 9.9029e+06 9.90913e+06 9.90302e+06 9.90924e+06 9.90313e+06 9.90934e+06 9.90324e+06 9.90945e+06 9.90334e+06
          9.90955e+06 9.90344e+06 9.90966e+06 9.90354e+06 9.90976e+06 9.90365e+06 9.90987e+06 9.90376e+06 9.91e+06 9.90387e+06 9.89774e+06 9.8977e+06
          9.89767e+06 9.89763e+06 9.89761e+06 9.89758e+06 9.89755e+06 9.89753e+06 9.89751e+06 9.89748e+06 9.89746e+06 9.89744e+06 9.89742e+06 9.8974e+06
          9.89737e+06 9.89735e+06 9.89733e+06 9.8973e+06 9.89727e+06 9.89724e+06 9.89722e+06 9.89718e+06 9.89715e+06 9.89712e+06 9.89708e+06 9.89704e+06
          9.89698e+06 9.89689e+06 9.89678e+06 9.89664e+06 9.89647e+06 9.89626e+06 9.89601e+06 9.89574e+06 9.89563e+06 9.89553e+06 9.89545e+06 9.89539e+06
          9.89533e+06 9.89528e+06 9.89525e+06 9.89523e+06 9.89522e+06 9.89523e+06 9.89526e+06 9.89531e+06 9.89537e+06 9.89546e+06 9.89569e+06 9.8959e+06
          9.89609e+06 9.89626e+06 9.89642e+06 9.89656e+06 9.89668e+06 9.8968e+06 9.89692e+06 9.89703e+06 9.89713e+06 9.89723e+06 9.89733e+06 9.89743e+06
          9.89753e+06 9.89763e+06 9.89774e+06 9.89161e+06 9.89158e+06 9.89154e+06 9.89152e+06 9.89149e+06 9.89146e+06 9.89144e+06 9.89142e+06 9.8914e+06
          9.89137e+06 9.89135e+06 9.89133e+06 9.89131e+06 9.89129e+06 9.89127e+06 9.89124e+06 9.89122e+06 9.89119e+06 9.89117e+06 9.89114e+06 9.89111e+06
          9.89107e+06 9.89104e+06 9.891e+06 9.89096e+06 9.8909e+06 9.89084e+06 9.89075e+06 9.89064e+06 9.89051e+06 9.89035e+06 9.89017e+06 9.88997e+06
          9.88975e+06 9.88966e+06 9.88958e+06 9.88951e+06 9.88945e+06 9.8894e+06 9.88936e+06 9.88933e+06 9.88932e+06 9.88931e+06 9.88932e+06 9.88935e+06
          9.88939e+06 9.88944e+06 9.88951e+06 9.8897e+06 9.88988e+06 9.89004e+06 9.8902e+06 9.89034e+06 9.89047e+06 9.8906e+06 9.89071e+06 9.89082e+06
          9.89093e+06 9.89103e+06 9.89112e+06 9.89122e+06 9.89132e+06 9.89141e+06 9.89151e+06 9.89161e+06 9.88548e+06 9.88545e+06 9.88542e+06 9.8854e+06
          9.88537e+06 9.88535e+06 9.88533e+06 9.8853e+06 9.88528e+06 9.88526e+06 9.88524e+06 9.88522e+06 9.8852e+06 9.88518e+06 9.88516e+06 9.88514e+06
          9.88511e+06 9.88509e+06 9.88506e+06 9.88503e+06 9.885e+06 9.88497e+06 9.88493e+06 9.88489e+06 9.88484e+06 9.88478e+06 9.88471e+06 9.88463e+06
          9.88453e+06 9.8844e+06 9.88426e+06 9.88411e+06 9.88394e+06 9.88376e+06 9.88368e+06 9.88362e+06 9.88356e+06 9.8835e+06 9.88346e+06 9.88343e+06
          9.8834e+06 9.88339e+06 9.88339e+06 9.8834e+06 9.88342e+06 9.88345e+06 9.8835e+06 9.88355e+06 9.88371e+06 9.88386e+06 9.88401e+06 9.88415e+06
          9.88428e+06 9.8844e+06 9.88452e+06 9.88463e+06 9.88473e+06 9.88483e+06 9.88493e+06 9.88502e+06 9.88511e+06 9.8852e+06 9.88529e+06 9.88538e+06
          9.88548e+06 9.87934e+06 9.87932e+06 9.8793e+06 9.87927e+06 9.87925e+06 9.87923e+06 9.87921e+06 9.87919e+06 9.87917e+06 9.87915e+06 9.87913e+06
          9.87911e+06 9.87909e+06 9.87907e+06 9.87905e+06 9.87903e+06 9.87901e+06 9.87898e+06 9.87896e+06 9.87893e+06 9.8789e+06 9.87886e+06 9.87882e+06
          9.87878e+06 9.87873e+06 9.87867e+06 9.8786e+06 9.87852e+06 9.87843e+06 9.87832e+06 9.8782e+06 9.87806e+06 9.87791e+06 9.87776e+06 9.8777e+06
          9.87764e+06 9.87759e+06 9.87755e+06 9.87751e+06 9.87748e+06 9.87746e+06 9.87745e+06 9.87745e+06 9.87746e+06 9.87748e+06 9.87751e+06 9.87754e+06
          9.87759e+06 9.87772e+06 9.87785e+06 9.87798e+06 9.8781e+06 9.87822e+06 9.87834e+06 9.87844e+06 9.87855e+06 9.87864e+06 9.87874e+06 9.87883e+06
          9.87892e+06 9.879e+06 9.87909e+06 9.87917e+06 9.87926e+06 9.87934e+06 9.87321e+06 9.87319e+06 9.87317e+06 9.87315e+06 9.87313e+06 9.87311e+06
          9.87309e+06 9.87308e+06 9.87306e+06 9.87304e+06 9.87302e+06 9.873e+06 9.87299e+06 9.87297e+06 9.87295e+06 9.87293e+06 9.8729e+06 9.87288e+06
          9.87286e+06 9.87283e+06 9.8728e+06 9.87276e+06 9.87272e+06 9.87268e+06 9.87263e+06 9.87257e+06 9.87251e+06 9.87243e+06 9.87234e+06 9.87225e+06
          9.87214e+06 9.87202e+06 9.8719e+06 9.87177e+06 9.87172e+06 9.87167e+06 9.87162e+06 9.87159e+06 9.87156e+06 9.87153e+06 9.87151e+06 9.8715e+06
          9.8715e+06 9.87151e+06 9.87153e+06 9.87155e+06 9.87158e+06 9.87162e+06 9.87173e+06 9.87185e+06 9.87196e+06 9.87207e+06 9.87218e+06 9.87228e+06
          9.87238e+06 9.87247e+06 9.87256e+06 9.87265e+06 9.87273e+06 9.87281e+06 9.8729e+06 9.87298e+06 9.87306e+06 9.87313e+06 9.87321e+06 9.86708e+06
          9.86706e+06 9.86705e+06 9.86703e+06 9.86701e+06 9.86699e+06 9.86698e+06 9.86696e+06 9.86695e+06 9.86693e+06 9.86691e+06 9.8669e+06 9.86688e+06
          9.86686e+06 9.86684e+06 9.86682e+06 9.8668e+06 9.86678e+06 9.86676e+06 9.86673e+06 9.8667e+06 9.86666e+06 9.86663e+06 9.86659e+06 9.86654e+06
          9.86648e+06 9.86642e+06 9.86635e+06 9.86627e+06 9.86619e+06 9.86609e+06 9.86599e+06 9.86588e+06 9.86577e+06 9.86573e+06 9.86569e+06 9.86565e+06
          9.86562e+06 9.86559e+06 9.86557e+06 9.86556e+06 9.86555e+06 9.86555e+06 9.86555e+06 9.86557e+06 9.86559e+06 9.86562e+06 9.86565e+06 9.86574e+06
          9.86584e+06 9.86594e+06 9.86604e+06 9.86613e+06 9.86622e+06 9.86631e+06 9.8664e+06 9.86648e+06 9.86656e+06 9.86664e+06 9.86671e+06 9.86679e+06
          9.86686e+06 9.86694e+06 9.86701e+06 9.86708e+06 9.86095e+06 9.86094e+06 9.86092e+06 9.8609e+06 9.86089e+06 9.86088e+06 9.86086e+06 9.86085e+06
          9.86083e+06 9.86082e+06 9.8608e+06 9.86079e+06 9.86077e+06 9.86076e+06 9.86074e+06 9.86072e+06 9.8607e+06 9.86068e+06 9.86066e+06 9.86063e+06
          9.8606e+06 9.86057e+06 9.86054e+06 9.8605e+06 9.86045e+06 9.8604e+06 9.86035e+06 9.86028e+06 9.86021e+06 9.86013e+06 9.86005e+06 9.85996e+06
          9.85987e+06 9.85977e+06 9.85974e+06 9.8597e+06 9.85967e+06 9.85965e+06 9.85962e+06 9.8596e+06 9.85959e+06 9.85958e+06 9.85958e+06 9.85959e+06
          9.8596e+06 9.85962e+06 9.85964e+06 9.85967e+06 9.85975e+06 9.85984e+06 9.85992e+06 9.86e+06 9.86009e+06 9.86017e+06 9.86025e+06 9.86033e+06
          9.8604e+06 9.86048e+06 9.86055e+06 9.86062e+06 9.86068e+06 9.86075e+06 9.86082e+06 9.86088e+06 9.86095e+06 9.85482e+06 9.85481e+06 9.85479e+06
          9.85478e+06 9.85477e+06 9.85476e+06 9.85474e+06 9.85473e+06 9.85472e+06 9.85471e+06 9.85469e+06 9.85468e+06 9.85467e+06 9.85465e+06 9.85464e+06
          9.85462e+06 9.8546e+06 9.85458e+06 9.85456e+06 9.85454e+06 9.85451e+06 9.85448e+06 9.85445e+06 9.85441e+06 9.85437e+06 9.85433e+06 9.85428e+06
          9.85422e+06 9.85416e+06 9.85409e+06 9.85401e+06 9.85394e+06 9.85386e+06 9.85378e+06 9.85375e+06 9.85372e+06 9.85369e+06 9.85367e+06 9.85365e+06
          9.85363e+06 9.85362e+06 9.85362e+06 9.85362e+06 9.85362e+06 9.85363e+06 9.85364e+06 9.85366e+06 9.85369e+06 9.85376e+06 9.85383e+06 9.8539e+06
          9.85398e+06 9.85405e+06 9.85412e+06 9.85419e+06 9.85426e+06 9.85433e+06 9.85439e+06 9.85446e+06 9.85452e+06 9.85458e+06 9.85464e+06 9.8547e+06
          9.85476e+06 9.85482e+06 9.84869e+06 9.84868e+06 9.84867e+06 9.84866e+06 9.84865e+06 9.84864e+06 9.84863e+06 9.84862e+06 9.84861e+06 9.8486e+06
          9.84859e+06 9.84858e+06 9.84856e+06 9.84855e+06 9.84854e+06 9.84852e+06 9.84851e+06 9.84849e+06 9.84847e+06 9.84845e+06 9.84842e+06 9.8484e+06
          9.84837e+06 9.84834e+06 9.8483e+06 9.84826e+06 9.84821e+06 9.84816e+06 9.8481e+06 9.84805e+06 9.84798e+06 9.84792e+06 9.84785e+06 9.84778e+06
          9.84775e+06 9.84773e+06 9.84771e+06 9.84769e+06 9.84767e+06 9.84766e+06 9.84765e+06 9.84764e+06 9.84764e+06 9.84764e+06 9.84765e+06 9.84766e+06
          9.84768e+06 9.8477e+06 9.84776e+06 9.84782e+06 9.84788e+06 9.84795e+06 9.84801e+06 9.84807e+06 9.84813e+06 9.84819e+06 9.84825e+06 9.84831e+06
          9.84837e+06 9.84842e+06 9.84848e+06 9.84853e+06 9.84858e+06 9.84864e+06 9.84869e+06 9.84256e+06 9.84255e+06 9.84254e+06 9.84253e+06 9.84253e+06
          9.84252e+06 9.84251e+06 9.8425e+06 9.84249e+06 9.84249e+06 9.84248e+06 9.84247e+06 9.84246e+06 9.84245e+06 9.84244e+06 9.84242e+06 9.84241e+06
          9.8424e+06 9.84238e+06 9.84236e+06 9.84234e+06 9.84232e+06 9.84229e+06 9.84226e+06 9.84223e+06 9.84219e+06 9.84215e+06 9.84211e+06 9.84206e+06
          9.84201e+06 9.84195e+06 9.8419e+06 9.84184e+06 9.84178e+06 9.84176e+06 9.84174e+06 9.84172e+06 9.8417e+06 9.84169e+06 9.84168e+06 9.84167e+06
          9.84166e+06 9.84166e+06 9.84166e+06 9.84167e+06 9.84168e+06 9.84169e+06 9.84171e+06 9.84176e+06 9.84181e+06 9.84186e+06 9.84192e+06 9.84197e+06
          9.84202e+06 9.84208e+06 9.84213e+06 9.84218e+06 9.84223e+06 9.84228e+06 9.84232e+06 9.84237e+06 9.84242e+06 9.84246e+06 9.84251e+06 9.84256e+06
          9.83642e+06 9.83642e+06 9.83642e+06 9.83641e+06 9.8364e+06 9.8364e+06 9.83639e+06 9.83639e+06 9.83638e+06 9.83638e+06 9.83637e+06 9.83636e+06
          9.83636e+06 9.83635e+06 9.83634e+06 9.83633e+06 9.83632e+06 9.8363e+06 9.83629e+06 9.83628e+06 9.83626e+06 9.83624e+06 9.83621e+06 9.83619e+06
          9.83616e+06 9.83613e+06 9.8361e+06 9.83606e+06 9.83602e+06 9.83597e+06 9.83593e+06 9.83588e+06 9.83583e+06 9.83578e+06 9.83576e+06 9.83574e+06
          9.83573e+06 9.83571e+06 9.8357e+06 9.83569e+06 9.83569e+06 9.83568e+06 9.83568e+06 9.83568e+06 9.83569e+06 9.83569e+06 9.8357e+06 9.83572e+06
          9.83576e+06 9.8358e+06 9.83584e+06 9.83589e+06 9.83593e+06 9.83598e+06 9.83602e+06 9.83606e+06 9.83611e+06 9.83615e+06 9.83619e+06 9.83623e+06
          9.83627e+06 9.83631e+06 9.83635e+06 9.83639e+06 9.83642e+06 9.83029e+06 9.83029e+06 9.83029e+06 9.83028e+06 9.83028e+06 9.83028e+06 9.83028e+06
          9.83027e+06 9.83027e+06 9.83027e+06 9.83026e+06 9.83026e+06 9.83025e+06 9.83025e+06 9.83024e+06 9.83023e+06 9.83022e+06 9.83022e+06 9.8302e+06
          9.83019e+06 9.83018e+06 9.83016e+06 9.83014e+06 9.83012e+06 9.8301e+06 9.83007e+06 9.83004e+06 9.83001e+06 9.82998e+06 9.82994e+06 9.8299e+06
          9.82986e+06 9.82982e+06 9.82978e+06 9.82976e+06 9.82975e+06 9.82974e+06 9.82972e+06 9.82972e+06 9.82971e+06 9.8297e+06 9.8297e+06 9.8297e+06
          9.8297e+06 9.8297e+06 9.8297e+06 9.82971e+06 9.82972e+06 9.82976e+06 9.82979e+06 9.82982e+06 9.82986e+06 9.8299e+06 9.82993e+06 9.82997e+06
          9.83e+06 9.83004e+06 9.83007e+06 9.8301e+06 9.83014e+06 9.83017e+06 9.8302e+06 9.83023e+06 9.83026e+06 9.83029e+06 9.82416e+06 9.82416e+06
          9.82416e+06 9.82416e+06 9.82416e+06 9.82416e+06 9.82416e+06 9.82416e+06 9.82416e+06 9.82416e+06 9.82416e+06 9.82415e+06 9.82415e+06 9.82415e+06
          9.82414e+06 9.82414e+06 9.82413e+06 9.82413e+06 9.82412e+06 9.82411e+06 9.8241e+06 9.82408e+06 9.82407e+06 9.82405e+06 9.82404e+06 9.82402e+06
          9.82399e+06 9.82397e+06 9.82394e+06 9.82391e+06 9.82388e+06 9.82385e+06 9.82381e+06 9.82378e+06 9.82377e+06 9.82376e+06 9.82374e+06 9.82373e+06
          9.82373e+06 9.82372e+06 9.82371e+06 9.82371e+06 9.82371e+06 9.82371e+06 9.82371e+06 9.82371e+06 9.82372e+06 9.82372e+06 9.82375e+06 9.82378e+06
          9.8238e+06 9.82383e+06 9.82386e+06 9.82388e+06 9.82391e+06 9.82394e+06 9.82396e+06 9.82399e+06 9.82402e+06 9.82404e+06 9.82407e+06 9.82409e+06
          9.82412e+06 9.82414e+06 9.82416e+06 9.81803e+06 9.81803e+06 9.81804e+06 9.81804e+06 9.81804e+06 9.81804e+06 9.81804e+06 9.81804e+06 9.81805e+06
          9.81805e+06 9.81805e+06 9.81805e+06 9.81805e+06 9.81805e+06 9.81805e+06 9.81804e+06 9.81804e+06 9.81804e+06 9.81803e+06 9.81803e+06 9.81802e+06
          9.81801e+06 9.818e+06 9.81799e+06 9.81798e+06 9.81796e+06 9.81794e+06 9.81792e+06 9.8179e+06 9.81788e+06 9.81786e+06 9.81783e+06 9.81781e+06
          9.81778e+06 9.81777e+06 9.81776e+06 9.81775e+06 9.81774e+06 9.81774e+06 9.81773e+06 9.81772e+06 9.81772e+06 9.81772e+06 9.81772e+06 9.81772e+06
          9.81772e+06 9.81772e+06 9.81773e+06 9.81775e+06 9.81776e+06 9.81778e+06 9.8178e+06 9.81782e+06 9.81784e+06 9.81786e+06 9.81788e+06 9.8179e+06
          9.81791e+06 9.81793e+06 9.81795e+06 9.81796e+06 9.81798e+06 9.818e+06 9.81802e+06 9.81803e+06 9.8119e+06 9.8119e+06 9.81191e+06 9.81191e+06
          9.81192e+06 9.81192e+06 9.81193e+06 9.81193e+06 9.81193e+06 9.81194e+06 9.81194e+06 9.81194e+06 9.81195e+06 9.81195e+06 9.81195e+06 9.81195e+06
          9.81195e+06 9.81195e+06 9.81195e+06 9.81195e+06 9.81195e+06 9.81194e+06 9.81194e+06 9.81193e+06 9.81192e+06 9.81191e+06 9.8119e+06 9.81188e+06
          9.81187e+06 9.81185e+06 9.81184e+06 9.81182e+06 9.8118e+06 9.81178e+06 9.81177e+06 9.81176e+06 9.81176e+06 9.81175e+06 9.81174e+06 9.81174e+06
          9.81173e+06 9.81173e+06 9.81173e+06 9.81172e+06 9.81172e+06 9.81172e+06 9.81172e+06 9.81173e+06 9.81174e+06 9.81175e+06 9.81176e+06 9.81177e+06
          9.81178e+06 9.81179e+06 9.8118e+06 9.81182e+06 9.81182e+06 9.81184e+06 9.81184e+06 9.81185e+06 9.81186e+06 9.81187e+06 9.81188e+06 9.81189e+06
          9.8119e+06 9.80577e+06 9.80578e+06 9.80578e+06 9.80579e+06 9.8058e+06 9.8058e+06 9.80581e+06 9.80582e+06 9.80582e+06 9.80583e+06 9.80584e+06
          9.80584e+06 9.80585e+06 9.80585e+06 9.80586e+06 9.80586e+06 9.80586e+06 9.80587e+06 9.80587e+06 9.80587e+06 9.80587e+06 9.80587e+06 9.80587e+06
          9.80587e+06 9.80586e+06 9.80586e+06 9.80585e+06 9.80584e+06 9.80584e+06 9.80583e+06 9.80582e+06 9.8058e+06 9.80579e+06 9.80577e+06 9.80577e+06
          9.80576e+06 9.80576e+06 9.80576e+06 9.80575e+06 9.80575e+06 9.80574e+06 9.80574e+06 9.80574e+06 9.80573e+06 9.80573e+06 9.80573e+06 9.80573e+06
          9.80573e+06 9.80573e+06 9.80574e+06 9.80574e+06 9.80574e+06 9.80574e+06 9.80575e+06 9.80575e+06 9.80575e+06 9.80576e+06 9.80576e+06 9.80576e+06
          9.80576e+06 9.80576e+06 9.80576e+06 9.80577e+06 9.80577e+06 9.80577e+06 9.79964e+06 9.79965e+06 9.79966e+06 9.79967e+06 9.79968e+06 9.79968e+06
          9.79969e+06 9.7997e+06 9.79971e+06 9.79972e+06 9.79973e+06 9.79974e+06 9.79975e+06 9.79975e+06 9.79976e+06 9.79977e+06 9.79978e+06 9.79978e+06
          9.79979e+06 9.79979e+06 9.7998e+06 9.7998e+06 9.7998e+06 9.79981e+06 9.79981e+06 9.79981e+06 9.79981e+06 9.79981e+06 9.7998e+06 9.7998e+06
          9.7998e+06 9.79979e+06 9.79978e+06 9.79977e+06 9.79977e+06 9.79977e+06 9.79977e+06 9.79976e+06 9.79976e+06 9.79976e+06 9.79975e+06 9.79975e+06
          9.79974e+06 9.79974e+06 9.79974e+06 9.79973e+06 9.79973e+06 9.79973e+06 9.79973e+06 9.79972e+06 9.79972e+06 9.79971e+06 9.79971e+06 9.7997e+06
          9.7997e+06 9.79969e+06 9.79969e+06 9.79968e+06 9.79967e+06 9.79967e+06 9.79966e+06 9.79966e+06 9.79965e+06 9.79964e+06 9.79964e+06 9.79351e+06
          9.79352e+06 9.79353e+06 9.79354e+06 9.79355e+06 9.79357e+06 9.79358e+06 9.79359e+06 9.7936e+06 9.79361e+06 9.79362e+06 9.79364e+06 9.79365e+06
          9.79366e+06 9.79367e+06 9.79368e+06 9.79369e+06 9.7937e+06 9.79371e+06 9.79372e+06 9.79373e+06 9.79373e+06 9.79374e+06 9.79375e+06 9.79376e+06
          9.79376e+06 9.79377e+06 9.79377e+06 9.79378e+06 9.79378e+06 9.79378e+06 9.79378e+06 9.79378e+06 9.79377e+06 9.79377e+06 9.79377e+06 9.79377e+06
          9.79377e+06 9.79377e+06 9.79376e+06 9.79376e+06 9.79376e+06 9.79375e+06 9.79375e+06 9.79374e+06 9.79374e+06 9.79373e+06 9.79372e+06 9.79372e+06
          9.79371e+06 9.7937e+06 9.79368e+06 9.79367e+06 9.79366e+06 9.79364e+06 9.79363e+06 9.79362e+06 9.7936e+06 9.79359e+06 9.79358e+06 9.79356e+06
          9.79355e+06 9.79353e+06 9.79352e+06 9.79351e+06 9.78738e+06 9.78739e+06 9.7874e+06 9.78742e+06 9.78743e+06 9.78745e+06 9.78746e+06 9.78748e+06
          9.78749e+06 9.7875e+06 9.78752e+06 9.78753e+06 9.78755e+06 9.78756e+06 9.78757e+06 9.78759e+06 9.7876e+06 9.78761e+06 9.78763e+06 9.78764e+06
          9.78765e+06 9.78767e+06 9.78768e+06 9.78769e+06 9.7877e+06 9.78771e+06 9.78772e+06 9.78774e+06 9.78774e+06 9.78775e+06 9.78776e+06 9.78777e+06
          9.78777e+06 9.78777e+06 9.78778e+06 9.78778e+06 9.78778e+06 9.78778e+06 9.78778e+06 9.78777e+06 9.78777e+06 9.78776e+06 9.78776e+06 9.78775e+06
          9.78775e+06 9.78774e+06 9.78773e+06 9.78772e+06 9.78772e+06 9.7877e+06 9.78768e+06 9.78766e+06 9.78763e+06 9.78761e+06 9.78759e+06 9.78757e+06
          9.78755e+06 9.78752e+06 9.7875e+06 9.78748e+06 9.78746e+06 9.78744e+06 9.78742e+06 9.7874e+06 9.78738e+06 9.78124e+06 9.78126e+06 9.78128e+06
          9.7813e+06 9.78131e+06 9.78133e+06 9.78134e+06 9.78136e+06 9.78138e+06 9.7814e+06 9.78141e+06 9.78143e+06 9.78145e+06 9.78146e+06 9.78148e+06
          9.7815e+06 9.78151e+06 9.78153e+06 9.78155e+06 9.78156e+06 9.78158e+06 9.7816e+06 9.78162e+06 9.78163e+06 9.78165e+06 9.78167e+06 9.78168e+06
          9.7817e+06 9.78172e+06 9.78173e+06 9.78175e+06 9.78176e+06 9.78177e+06 9.78178e+06 9.78178e+06 9.78178e+06 9.78178e+06 9.78178e+06 9.78178e+06
          9.78178e+06 9.78178e+06 9.78178e+06 9.78177e+06 9.78176e+06 9.78175e+06 9.78174e+06 9.78173e+06 9.78172e+06 9.78171e+06 9.78168e+06 9.78166e+06
          9.78163e+06 9.7816e+06 9.78157e+06 9.78154e+06 9.78151e+06 9.78148e+06 9.78145e+06 9.78142e+06 9.78139e+06 9.78136e+06 9.78133e+06 9.7813e+06
          9.78127e+06 9.78124e+06 9.77511e+06 9.77513e+06 9.77515e+06 9.77517e+06 9.77519e+06 9.77521e+06 9.77523e+06 9.77525e+06 9.77527e+06 9.77529e+06
          9.77531e+06 9.77533e+06 9.77535e+06 9.77536e+06 9.77538e+06 9.7754e+06 9.77543e+06 9.77545e+06 9.77547e+06 9.77549e+06 9.77551e+06 9.77553e+06
          9.77555e+06 9.77558e+06 9.7756e+06 9.77562e+06 9.77564e+06 9.77567e+06 9.77569e+06 9.77571e+06 9.77573e+06 9.77575e+06 9.77577e+06 9.77578e+06
          9.77578e+06 9.77579e+06 9.77579e+06 9.7758e+06 9.7758e+06 9.77579e+06 9.77579e+06 9.77579e+06 9.77578e+06 9.77577e+06 9.77576e+06 9.77575e+06
          9.77574e+06 9.77572e+06 9.77571e+06 9.77567e+06 9.77564e+06 9.7756e+06 9.77556e+06 9.77552e+06 9.77548e+06 9.77544e+06 9.77541e+06 9.77537e+06
          9.77533e+06 9.7753e+06 9.77526e+06 9.77522e+06 9.77518e+06 9.77515e+06 9.77511e+06 9.76898e+06 9.769e+06 9.76902e+06 9.76905e+06 9.76907e+06
          9.76909e+06 9.76911e+06 9.76914e+06 9.76916e+06 9.76918e+06 9.7692e+06 9.76922e+06 9.76925e+06 9.76927e+06 9.76929e+06 9.76931e+06 9.76934e+06
          9.76936e+06 9.76939e+06 9.76941e+06 9.76944e+06 9.76946e+06 9.76949e+06 9.76952e+06 9.76955e+06 9.76957e+06 9.7696e+06 9.76963e+06 9.76966e+06
          9.76969e+06 9.76972e+06 9.76974e+06 9.76977e+06 9.76978e+06 9.76979e+06 9.7698e+06 9.7698e+06 9.76981e+06 9.76981e+06 9.76981e+06 9.7698e+06
          9.7698e+06 9.76979e+06 9.76978e+06 9.76977e+06 9.76976e+06 9.76974e+06 9.76972e+06 9.7697e+06 9.76966e+06 9.76962e+06 9.76957e+06 9.76952e+06
          9.76948e+06 9.76943e+06 9.76938e+06 9.76934e+06 9.76929e+06 9.76925e+06 9.7692e+06 9.76916e+06 9.76911e+06 9.76907e+06 9.76902e+06 9.76898e+06
          9.76285e+06 9.76288e+06 9.7629e+06 9.76292e+06 9.76295e+06 9.76297e+06 9.763e+06 9.76302e+06 9.76305e+06 9.76307e+06 9.7631e+06 9.76312e+06
          9.76314e+06 9.76317e+06 9.7632e+06 9.76322e+06 9.76325e+06 9.76328e+06 9.7633e+06 9.76333e+06 9.76336e+06 9.7634e+06 9.76343e+06 9.76346e+06
          9.76349e+06 9.76353e+06 9.76356e+06 9.7636e+06 9.76363e+06 9.76367e+06 9.7637e+06 9.76374e+06 9.76377e+06 9.76378e+06 9.7638e+06 9.76381e+06
          9.76382e+06 9.76382e+06 9.76382e+06 9.76382e+06 9.76382e+06 9.76381e+06 9.76381e+06 9.76379e+06 9.76378e+06 9.76376e+06 9.76374e+06 9.76372e+06
          9.7637e+06 9.76365e+06 9.7636e+06 9.76354e+06 9.76349e+06 9.76343e+06 9.76338e+06 9.76332e+06 9.76327e+06 9.76321e+06 9.76316e+06 9.76311e+06
          9.76306e+06 9.763e+06 9.76295e+06 9.7629e+06 9.76285e+06 9.75672e+06 9.75675e+06 9.75677e+06 9.7568e+06 9.75683e+06 9.75685e+06 9.75688e+06
          9.75691e+06 9.75694e+06 9.75696e+06 9.75699e+06 9.75702e+06 9.75704e+06 9.75707e+06 9.7571e+06 9.75713e+06 9.75716e+06 9.75719e+06 9.75722e+06
          9.75726e+06 9.75729e+06 9.75733e+06 9.75736e+06 9.7574e+06 9.75744e+06 9.75748e+06 9.75752e+06 9.75756e+06 9.75761e+06 9.75765e+06 9.75769e+06
          9.75774e+06 9.75778e+06 9.75779e+06 9.75781e+06 9.75782e+06 9.75783e+06 9.75784e+06 9.75784e+06 9.75784e+06 9.75784e+06 9.75783e+06 9.75782e+06
          9.75781e+06 9.75779e+06 9.75778e+06 9.75775e+06 9.75773e+06 9.7577e+06 9.75764e+06 9.75758e+06 9.75752e+06 9.75745e+06 9.75738e+06 9.75732e+06
          9.75726e+06 9.7572e+06 9.75713e+06 9.75707e+06 9.75701e+06 9.75695e+06 9.75689e+06 9.75684e+06 9.75678e+06 9.75672e+06 9.75059e+06 9.75062e+06
          9.75065e+06 9.75068e+06 9.75071e+06 9.75074e+06 9.75076e+06 9.75079e+06 9.75082e+06 9.75085e+06 9.75088e+06 9.75091e+06 9.75094e+06 9.75097e+06
          9.75101e+06 9.75104e+06 9.75107e+06 9.7511e+06 9.75114e+06 9.75118e+06 9.75122e+06 9.75126e+06 9.7513e+06 9.75134e+06 9.75138e+06 9.75143e+06
          9.75148e+06 9.75153e+06 9.75158e+06 9.75163e+06 9.75168e+06 9.75173e+06 9.75178e+06 9.7518e+06 9.75182e+06 9.75184e+06 9.75185e+06 9.75186e+06
          9.75186e+06 9.75186e+06 9.75186e+06 9.75185e+06 9.75184e+06 9.75183e+06 9.75181e+06 9.75179e+06 9.75176e+06 9.75174e+06 9.75171e+06 9.75164e+06
          9.75156e+06 9.75149e+06 9.75141e+06 9.75134e+06 9.75127e+06 9.75119e+06 9.75112e+06 9.75105e+06 9.75098e+06 9.75092e+06 9.75085e+06 9.75078e+06
          9.75072e+06 9.75065e+06 9.75059e+06 9.74446e+06 9.74449e+06 9.74452e+06 9.74455e+06 9.74458e+06 9.74462e+06 9.74465e+06 9.74468e+06 9.74471e+06
          9.74474e+06 9.74478e+06 9.74481e+06 9.74484e+06 9.74488e+06 9.74491e+06 9.74494e+06 9.74498e+06 9.74502e+06 9.74506e+06 9.7451e+06 9.74514e+06
          9.74518e+06 9.74523e+06 9.74528e+06 9.74533e+06 9.74538e+06 9.74543e+06 9.74549e+06 9.74555e+06 9.74561e+06 9.74567e+06 9.74573e+06 9.74579e+06
          9.74581e+06 9.74584e+06 9.74585e+06 9.74587e+06 9.74588e+06 9.74589e+06 9.74589e+06 9.74589e+06 9.74588e+06 9.74587e+06 9.74585e+06 9.74583e+06
          9.74581e+06 9.74578e+06 9.74574e+06 9.74571e+06 9.74563e+06 9.74555e+06 9.74546e+06 9.74538e+06 9.74529e+06 9.74521e+06 9.74513e+06 9.74505e+06
          9.74497e+06 9.7449e+06 9.74482e+06 9.74475e+06 9.74467e+06 9.7446e+06 9.74453e+06 9.74446e+06 9.73832e+06 9.73836e+06 9.7384e+06 9.73843e+06
          9.73846e+06 9.7385e+06 9.73853e+06 9.73857e+06 9.7386e+06 9.73864e+06 9.73867e+06 9.7387e+06 9.73874e+06 9.73878e+06 9.73881e+06 9.73885e+06
          9.73889e+06 9.73893e+06 9.73897e+06 9.73901e+06 9.73906e+06 9.73911e+06 9.73916e+06 9.73921e+06 9.73927e+06 9.73933e+06 9.73939e+06 9.73945e+06
          9.73952e+06 9.73959e+06 9.73966e+06 9.73973e+06 9.7398e+06 9.73983e+06 9.73985e+06 9.73988e+06 9.7399e+06 9.73991e+06 9.73992e+06 9.73992e+06
          9.73992e+06 9.73991e+06 9.7399e+06 9.73988e+06 9.73986e+06 9.73983e+06 9.73979e+06 9.73976e+06 9.73972e+06 9.73963e+06 9.73953e+06 9.73943e+06
          9.73934e+06 9.73924e+06 9.73915e+06 9.73906e+06 9.73898e+06 9.73889e+06 9.73881e+06 9.73872e+06 9.73864e+06 9.73856e+06 9.73848e+06 9.7384e+06
          9.73832e+06 9.73219e+06 9.73223e+06 9.73227e+06 9.73231e+06 9.73234e+06 9.73238e+06 9.73242e+06 9.73245e+06 9.73249e+06 9.73252e+06 9.73256e+06
          9.7326e+06 9.73264e+06 9.73267e+06 9.73271e+06 9.73275e+06 9.7328e+06 9.73284e+06 9.73288e+06 9.73293e+06 9.73298e+06 9.73303e+06 9.73309e+06
          9.73314e+06 9.73321e+06 9.73327e+06 9.73334e+06 9.73341e+06 9.73349e+06 9.73357e+06 9.73365e+06 9.73373e+06 9.73381e+06 9.73384e+06 9.73388e+06
          9.7339e+06 9.73392e+06 9.73394e+06 9.73395e+06 9.73396e+06 9.73395e+06 9.73395e+06 9.73393e+06 9.73391e+06 9.73388e+06 9.73385e+06 9.73381e+06
          9.73377e+06 9.73373e+06 9.73362e+06 9.73351e+06 9.7334e+06 9.7333e+06 9.73319e+06 9.73309e+06 9.73299e+06 9.7329e+06 9.7328e+06 9.73271e+06
          9.73262e+06 9.73254e+06 9.73245e+06 9.73236e+06 9.73228e+06 9.73219e+06 9.72606e+06 9.7261e+06 9.72614e+06 9.72618e+06 9.72622e+06 9.72626e+06
          9.7263e+06 9.72634e+06 9.72638e+06 9.72642e+06 9.72645e+06 9.72649e+06 9.72653e+06 9.72657e+06 9.72661e+06 9.72666e+06 9.7267e+06 9.72674e+06
          9.72679e+06 9.72684e+06 9.7269e+06 9.72695e+06 9.72701e+06 9.72707e+06 9.72714e+06 9.72721e+06 9.72729e+06 9.72737e+06 9.72745e+06 9.72754e+06
          9.72764e+06 9.72773e+06 9.72783e+06 9.72787e+06 9.7279e+06 9.72794e+06 9.72796e+06 9.72798e+06 9.72799e+06 9.728e+06 9.728e+06 9.72799e+06
          9.72797e+06 9.72795e+06 9.72792e+06 9.72788e+06 9.72784e+06 9.72779e+06 9.72774e+06 9.72762e+06 9.7275e+06 9.72737e+06 9.72725e+06 9.72714e+06
          9.72703e+06 9.72692e+06 9.72682e+06 9.72672e+06 9.72662e+06 9.72652e+06 9.72643e+06 9.72634e+06 9.72625e+06 9.72615e+06 9.72606e+06 9.71993e+06
          9.71998e+06 9.72002e+06 9.72006e+06 9.7201e+06 9.72014e+06 9.72018e+06 9.72022e+06 9.72026e+06 9.7203e+06 9.72034e+06 9.72039e+06 9.72043e+06
          9.72047e+06 9.72051e+06 9.72056e+06 9.7206e+06 9.72065e+06 9.7207e+06 9.72075e+06 9.72081e+06 9.72087e+06 9.72093e+06 9.721e+06 9.72107e+06
          9.72115e+06 9.72123e+06 9.72132e+06 9.72141e+06 9.72151e+06 9.72162e+06 9.72173e+06 9.72185e+06 9.72189e+06 9.72193e+06 9.72197e+06 9.722e+06
          9.72203e+06 9.72204e+06 9.72205e+06 9.72205e+06 9.72204e+06 9.72202e+06 9.72199e+06 9.72196e+06 9.72192e+06 9.72187e+06 9.72181e+06 9.72176e+06
          9.72162e+06 9.72148e+06 9.72134e+06 9.72121e+06 9.72108e+06 9.72096e+06 9.72085e+06 9.72074e+06 9.72063e+06 9.72052e+06 9.72042e+06 9.72032e+06
          9.72022e+06 9.72013e+06 9.72003e+06 9.71993e+06 9.7138e+06 9.71385e+06 9.71389e+06 9.71394e+06 9.71398e+06 9.71403e+06 9.71407e+06 9.71411e+06
          9.71415e+06 9.7142e+06 9.71424e+06 9.71428e+06 9.71432e+06 9.71436e+06 9.71441e+06 9.71446e+06 9.7145e+06 9.71455e+06 9.71461e+06 9.71466e+06
          9.71472e+06 9.71478e+06 9.71485e+06 9.71492e+06 9.71499e+06 9.71508e+06 9.71516e+06 9.71526e+06 9.71536e+06 9.71548e+06 9.7156e+06 9.71573e+06
          9.71586e+06 9.71592e+06 9.71597e+06 9.71602e+06 9.71605e+06 9.71608e+06 9.7161e+06 9.71611e+06 9.71611e+06 9.7161e+06 9.71608e+06 9.71605e+06
          9.71601e+06 9.71596e+06 9.7159e+06 9.71584e+06 9.71577e+06 9.71561e+06 9.71545e+06 9.7153e+06 9.71515e+06 9.71502e+06 9.71489e+06 9.71477e+06
          9.71465e+06 9.71454e+06 9.71443e+06 9.71432e+06 9.71422e+06 9.71411e+06 9.71401e+06 9.7139e+06 9.7138e+06 9.70767e+06 9.70772e+06 9.70777e+06
          9.70782e+06 9.70787e+06 9.70791e+06 9.70796e+06 9.708e+06 9.70804e+06 9.70808e+06 9.70813e+06 9.70817e+06 9.70822e+06 9.70826e+06 9.70831e+06
          9.70835e+06 9.7084e+06 9.70846e+06 9.70851e+06 9.70857e+06 9.70863e+06 9.70869e+06 9.70876e+06 9.70883e+06 9.70891e+06 9.709e+06 9.70909e+06
          9.7092e+06 9.70931e+06 9.70943e+06 9.70957e+06 9.70973e+06 9.70988e+06 9.70995e+06 9.71002e+06 9.71007e+06 9.71011e+06 9.71014e+06 9.71016e+06
          9.71017e+06 9.71017e+06 9.71016e+06 9.71014e+06 9.71011e+06 9.71007e+06 9.71001e+06 9.70995e+06 9.70987e+06 9.70979e+06 9.7096e+06 9.70942e+06
          9.70925e+06 9.70909e+06 9.70895e+06 9.70881e+06 9.70868e+06 9.70856e+06 9.70844e+06 9.70833e+06 9.70822e+06 9.70811e+06 9.708e+06 9.70789e+06
          9.70778e+06 9.70767e+06 9.70154e+06 9.7016e+06 9.70165e+06 9.7017e+06 9.70175e+06 9.7018e+06 9.70184e+06 9.70189e+06 9.70193e+06 9.70197e+06
          9.70202e+06 9.70206e+06 9.70211e+06 9.70215e+06 9.7022e+06 9.70225e+06 9.7023e+06 9.70235e+06 9.70241e+06 9.70247e+06 9.70253e+06 9.7026e+06
          9.70267e+06 9.70274e+06 9.70282e+06 9.70291e+06 9.70301e+06 9.70312e+06 9.70324e+06 9.70338e+06 9.70353e+06 9.70371e+06 9.7039e+06 9.70399e+06
          9.70407e+06 9.70414e+06 9.70418e+06 9.70422e+06 9.70424e+06 9.70425e+06 9.70425e+06 9.70424e+06 9.70422e+06 9.70418e+06 9.70414e+06 9.70408e+06
          9.704e+06 9.70391e+06 9.70381e+06 9.70358e+06 9.70337e+06 9.70319e+06 9.70302e+06 9.70287e+06 9.70272e+06 9.70259e+06 9.70246e+06 9.70234e+06
          9.70222e+06 9.70211e+06 9.702e+06 9.70188e+06 9.70177e+06 9.70166e+06 9.70154e+06 9.69541e+06 9.69547e+06 9.69553e+06 9.69558e+06 9.69563e+06
          9.69568e+06 9.69573e+06 9.69577e+06 9.69582e+06 9.69586e+06 9.69591e+06 9.69595e+06 9.696e+06 9.69605e+06 9.69609e+06 9.69614e+06 9.6962e+06
          9.69625e+06 9.6963e+06 9.69636e+06 9.69643e+06 9.6965e+06 9.69657e+06 9.69664e+06 9.69673e+06 9.69682e+06 9.69692e+06 9.69703e+06 9.69716e+06
          9.6973e+06 9.69746e+06 9.69766e+06 9.6979e+06 9.69805e+06 9.69814e+06 9.69822e+06 9.69827e+06 9.69831e+06 9.69833e+06 9.69834e+06 9.69834e+06
          9.69833e+06 9.69831e+06 9.69827e+06 9.69822e+06 9.69816e+06 9.69807e+06 9.69796e+06 9.6978e+06 9.69753e+06 9.6973e+06 9.69711e+06 9.69693e+06