<?xml version="1.0"?>
<VTKFile type="UnstructuredGrid" version="0.1" byte_order="LittleEndian">
  <UnstructuredGrid>
    <Piece NumberOfCells="40" NumberOfPoints="63">
      <PointData Scalars="pressure_l">
        <DataArray type="Float32" Name="pressure_l" NumberOfComponents="1" format="ascii">
          0 0 0 0 0 0 0 0 0 0 0 0
          0 0 0 0 0 0 0 0 0 0 0 0
          0 0 0 0 0 0 0 0 0 0 0 0
          0 0 0 0 0 0 0 0 0 0 0 0
          0 0 0 0 0 0 0 0 0 0 0 0
          0 0 0
        </DataArray>
        <DataArray type="Float32" Name="density_l" NumberOfComponents="1" format="ascii">
          993.647 993.647 993.647 993.647 993.647 993.647 993.647 993.647 993.647 993.647 993.647 993.647
          993.647 993.647 993.647 993.647 993.647 993.647 993.647 993.647 993.647 993.647 993.647 993.647
          993.647 993.647 993.647 993.647 993.647 993.647 993.647 993.647 993.647 993.647 993.647 993.647
          993.647 993.647 993.647 993.647 993.647 993.647 993.647 993.647 993.647 993.647 993.647 993.647
          993.647 993.647 993.647 993.647 993.647 993.647 993.647 993.647 993.647 993.647 993.647 993.647
          993.647 993.647 993.647
        </DataArray>
        <DataArray type="Float32" Name="saturation_l" NumberOfComponents="1" format="ascii">
          0 0 0 0 0 0 0 0 0 0 0 0
          0 0 0 0 0 0 0 0 0 0 0 0
          0 0 0 0 0 0 0 0 0 0 0 0
          0 0 0 0 0 0 0 0 0 0 0 0
          0 0 0 0 0 0 0 0 0 0 0 0
          0 0 0
        </DataArray>
        <DataArray type="Float32" Name="relativePerm_l" NumberOfComponents="1" format="ascii">
          1 1 1 1 1 1 1 1 1 1 1 1
          1 1 1 1 1 1 1 1 1 1 1 1
          1 1 1 1 1 1 1 1 1 1 1 1
          1 1 1 1 1 1 1 1 1 1 1 1
          1 1 1 1 1 1 1 1 1 1 1 1
          1 1 1
        </DataArray>
        <DataArray type="Float32" Name="porosity" NumberOfComponents="1" format="ascii">
          0.13 0.13 0.13 0.13 0.13 0.13 0.13 0.13 0.13 0.13 0.13 0.13
          0.13 0.13 0.13 0.13 0.13 0.13 0.13 0.13 0.13 0.13 0.13 0.13
          0.13 0.13 0.13 0.13 0.13 0.13 0.13 0.13 0.13 0.13 0.13 0.13
          0.13 0.13 0.13 0.13 0.13 0.13 0.13 0.13 0.13 0.13 0.13 0.13
          0.13 0.13 0.13 0.13 0.13 0.13 0.13 0.13 0.13 0.13 0.13 0.13
          0.13 0.13 0.13
        </DataArray>
        <DataArray type="Float32" Name="moleFrac_l^H2O" NumberOfComponents="1" format="ascii">
          1 1 1 1 1 1 1 1 1 1 1 1
          1 1 1 1 1 1 1 1 1 1 1 1
          1 1 1 1 1 1 1 1 1 1 1 1
          1 1 1 1 1 1 1 1 1 1 1 1
          1 1 1 1 1 1 1 1 1 1 1 1
          1 1 1
        </DataArray>
        <DataArray type="Float32" Name="moleFrac_l^N2" NumberOfComponents="1" format="ascii">
          0 0 0 0 0 0 0 0 0 0 0 0
          0 0 0 0 0 0 0 0 0 0 0 0
          0 0 0 0 0 0 0 0 0 0 0 0
          0 0 0 0 0 0 0 0 0 0 0 0
          0 0 0 0 0 0 0 0 0 0 0 0
          0 0 0
        </DataArray>
        <DataArray type="Float32" Name="massFrac_l^H2O" NumberOfComponents="1" format="ascii">
          1 1 1 1 1 1 1 1 1 1 1 1
          1 1 1 1 1 1 1 1 1 1 1 1
          1 1 1 1 1 1 1 1 1 1 1 1
          1 1 1 1 1 1 1 1 1 1 1 1
          1 1 1 1 1 1 1 1 1 1 1 1
          1 1 1
        </DataArray>
        <DataArray type="Float32" Name="massFrac_l^N2" NumberOfComponents="1" format="ascii">
          0 0 0 0 0 0 0 0 0 0 0 0
          0 0 0 0 0 0 0 0 0 0 0 0
          0 0 0 0 0 0 0 0 0 0 0 0
          0 0 0 0 0 0 0 0 0 0 0 0
          0 0 0 0 0 0 0 0 0 0 0 0
          0 0 0
        </DataArray>
        <DataArray type="Float32" Name="temperature" NumberOfComponents="1" format="ascii">
          309.15 309.15 309.15 309.15 309.15 309.15 309.15 309.15 309.15 309.15 309.15 309.15
          309.15 309.15 309.15 309.15 309.15 309.15 309.15 309.15 309.15 309.15 309.15 309.15
          309.15 309.15 309.15 309.15 309.15 309.15 309.15 309.15 309.15 309.15 309.15 309.15
          309.15 309.15 309.15 309.15 309.15 309.15 309.15 309.15 309.15 309.15 309.15 309.15
          309.15 309.15 309.15 309.15 309.15 309.15 309.15 309.15 309.15 309.15 309.15 309.15
          309.15 309.15 309.15
        </DataArray>
      </PointData>
      <Points>
        <DataArray type="Float32" Name="Coordinates" NumberOfComponents="3" format="ascii">
          0 0 0 0.05 0 0 0 0.5 0 0.05 0.5 0
          0.1 0 0 0.1 0.5 0 0.15 0 0 0.15 0.5 0
          0.2 0 0 0.2 0.5 0 0.25 0 0 0.25 0.5 0
          0.3 0 0 0.3 0.5 0 0.35 0 0 0.35 0.5 0
          0.4 0 0 0.4 0.5 0 0.45 0 0 0.45 0.5 0
          0.5 0 0 0.5 0.5 0 0.55 0 0 0.55 0.5 0
          0.6 0 0 0.6 0.5 0 0.65 0 0 0.65 0.5 0
          0.7 0 0 0.7 0.5 0 0.75 0 0 0.75 0.5 0
          0.8 0 0 0.8 0.5 0 0.85 0 0 0.85 0.5 0
          0.9 0 0 0.9 0.5 0 0.95 0 0 0.95 0.5 0
          1 0 0 1 0.5 0 0 1 0 0.05 1 0
          0.1 1 0 0.15 1 0 0.2 1 0 0.25 1 0
          0.3 1 0 0.35 1 0 0.4 1 0 0.45 1 0
          0.5 1 0 0.55 1 0 0.6 1 0 0.65 1 0
          0.7 1 0 0.75 1 0 0.8 1 0 0.85 1 0
          0.9 1 0 0.95 1 0 1 1 0
        </DataArray>
      </Points>
      <Cells>
        <DataArray type="Int32" Name="connectivity" NumberOfComponents="1" format="ascii">
          0 1 3 2 1 4 5 3 4 6 7 5
          6 8 9 7 8 10 11 9 10 12 13 11
          12 14 15 13 14 16 17 15 16 18 19 17
          18 20 21 19 20 22 23 21 22 24 25 23
          24 26 27 25 26 28 29 27 28 30 31 29
          30 32 33 31 32 34 35 33 34 36 37 35
          36 38 39 37 38 40 41 39 2 3 43 42
          3 5 44 43 5 7 45 44 7 9 46 45
          9 11 47 46 11 13 48 47 13 15 49 48
          15 17 50 49 17 19 51 50 19 21 52 51
          21 23 53 52 23 25 54 53 25 27 55 54
          27 29 56 55 29 31 57 56 31 33 58 57
          33 35 59 58 35 37 60 59 37 39 61 60
          39 41 62 61
        </DataArray>
        <DataArray type="Int32" Name="offsets" NumberOfComponents="1" format="ascii">
          4 8 12 16 20 24 28 32 36 40 44 48
          52 56 60 64 68 72 76 80 84 88 92 96
          100 104 108 112 116 120 124 128 132 136 140 144
          148 152 156 160
        </DataArray>
        <DataArray type="UInt8" Name="types" NumberOfComponents="1" format="ascii">
          9 9 9 9 9 9 9 9 9 9 9 9
          9 9 9 9 9 9 9 9 9 9 9 9
          9 9 9 9 9 9 9 9 9 9 9 9
          9 9 9 9
        </DataArray>
      </Cells>
    </Piece>
  </UnstructuredGrid>
</VTKFile>
