<?xml version="1.0"?>
<VTKFile type="UnstructuredGrid" version="0.1" byte_order="LittleEndian">
  <UnstructuredGrid>
    <Piece NumberOfCells="384" NumberOfPoints="425">
      <PointData Scalars="pressure_l">
        <DataArray type="Float32" Name="pressure_l" NumberOfComponents="1" format="ascii">
          100000 100043 100000 100023 100062 100039 100072 100046 100005 100002 100002 100000
          100002 100000 100002 100000 100018 100016 100578 100546 100607 100577 100670 100639
          100769 100738 100909 100877 101098 101063 101343 101306 101657 101616 102052 102006
          102547 102492 103165 103097 103938 103848 104913 104790 106082 106031 110576 109476
          200000 200000 100000 100013 100023 100028 100001 100000 100000 100000 100014 100513
          100543 100604 100700 100835 101016 101250 101549 101923 102388 102958 103651 104485
          105509 108608 200000 100000 100007 100013 100016 100001 100000 100000 100000 100013
          100477 100506 100564 100656 100785 100956 101178 101460 101811 102243 102767 103389
          104091 104743 106909 200000 100000 100002 100005 100007 100000 100000 100000 100000
          100012 100439 100466 100521 100607 100727 100887 101093 101352 101674 102067 102541
          103102 103745 104388 102524 200000 99997.1 99997.7 99998.9 99999.7 100000 100000 100000
          100000 100010 100399 100424 100475 100554 100664 100810 100997 101231 101519 101868
          102288 102792 103412 104308 107902 97935.9 99992 99992.2 99992.7 99993.1 99999.9 100000
          100000 100000 100009 100358 100381 100427 100498 100597 100728 100894 101100 101351
          101654 102012 102437 102951 103617 103564 103078 99985.8 99985.9 99986.1 99986.3 99999.7
          100000 100000 100000 100008 100317 100337 100378 100441 100529 100643 100787 100965
          101179 101432 101724 102054 102408 102691 102775 102756 99978.6 99978.7 99978.8 99979
          99999.4 100000 100000 100000 100007 100275 100293 100329 100384 100460 100558 100681
          100831 101009 101213 101443 101687 101920 102101 102198 102224 99970.3 99970.4 99970.5
          99970.6 99999.1 100000 100000 100000 100005 100234 100249 100280 100328 100393 100476
          100580 100703 100847 101010 101185 101364 101528 101656 101735 101760 99960.7 99960.8
          99960.9 99961.1 99998.8 100000 100000 100000 100004 100193 100206 100233 100274 100329
          100399 100484 100585 100701 100828 100961 101093 101212 101306 101365 101385 99949.6
          99949.6 99949.8 99950 99998.4 100000 100000 100000 100003 100153 100165 100188 100223
          100269 100327 100398 100480 100571 100671 100773 100872 100959 101028 101072 101087
          99936.7 99936.8 99937 99937.3 99997.8 100000 100000 100000 100002 100115 100125 100145
          100175 100214 100263 100321 100388 100461 100539 100618 100693 100759 100811 100844
          100855 99921.9 99922.1 99922.5 99922.6 99997.2 99999.9 100000 100000 100001 100076 100086
          100104 100131 100165 100206 100255 100310 100370 100433 100495 100554 100605 100645
          100670 100679 99904.5 99905.1 99906.9 99905.7 99994.8 99997.8 99998.3 99998.5 99998.5 100037
          100048 100067 100091 100121 100158 100200 100247 100298 100350 100402 100450 100491
          100523 100543 100550 99883.6 99884.9 99889 99901.1 99909.1 99925.8 99941.1 99957 99975.5
          99994.5 100013 100032 100056 100084 100118 100156 100198 100244 100290 100335 100377
          100413 100441 100458 100464 99858.5 99860 99865.2 99873.9 99884.9 99898.4 99913.5 99929.4
          99946.4 99964.3 99982.6 100003 100026 100053 100086 100123 100164 100207 100251 100295
          100335 100369 100395 100412 100417
        </DataArray>
        <DataArray type="Float32" Name="pressure_g" NumberOfComponents="1" format="ascii">
          100000 100043 100000 100023 100062 100039 100072 100046 100005 100002 100002 100000
          100002 100000 100002 100000 100018 100016 100578 100546 100607 100577 100670 100639
          100769 100738 100909 100877 101098 101063 101343 101306 101657 101616 102052 102006
          102547 102492 103165 103097 103938 103848 104913 104790 106082 106031 110576 109476
          200000 200000 100000 100013 100023 100028 100001 100000 100000 100000 100014 100513
          100543 100604 100700 100835 101016 101250 101549 101923 102388 102958 103651 104485
          105509 108608 200000 100000 100007 100013 100016 100001 100000 100000 100000 100013
          100477 100506 100564 100656 100785 100956 101178 101460 101811 102243 102767 103389
          104091 104743 106909 200000 100000 100002 100005 100007 100000 100000 100000 100000
          100012 100439 100466 100521 100607 100727 100887 101093 101352 101674 102067 102541
          103102 103745 104388 102524 200000 99997.1 99997.7 99998.9 99999.7 100000 100000 100000
          100000 100010 100399 100424 100475 100554 100664 100810 100997 101231 101519 101868
          102288 102792 103412 104308 107902 97935.9 99992 99992.2 99992.7 99993.1 99999.9 100000
          100000 100000 100009 100358 100381 100427 100498 100597 100728 100894 101100 101351
          101654 102012 102437 102951 103617 103564 103078 99985.8 99985.9 99986.1 99986.3 99999.7
          100000 100000 100000 100008 100317 100337 100378 100441 100529 100643 100787 100965
          101179 101432 101724 102054 102408 102691 102775 102756 99978.6 99978.7 99978.8 99979
          99999.4 100000 100000 100000 100007 100275 100293 100329 100384 100460 100558 100681
          100831 101009 101213 101443 101687 101920 102101 102198 102224 99970.3 99970.4 99970.5
          99970.6 99999.1 100000 100000 100000 100005 100234 100249 100280 100328 100393 100476
          100580 100703 100847 101010 101185 101364 101528 101656 101735 101760 99960.7 99960.8
          99960.9 99961.1 99998.8 100000 100000 100000 100004 100193 100206 100233 100274 100329
          100399 100484 100585 100701 100828 100961 101093 101212 101306 101365 101385 99949.6
          99949.6 99949.8 99950 99998.4 100000 100000 100000 100003 100153 100165 100188 100223
          100269 100327 100398 100480 100571 100671 100773 100872 100959 101028 101072 101087
          99936.7 99936.8 99937 99937.3 99997.8 100000 100000 100000 100002 100115 100125 100145
          100175 100214 100263 100321 100388 100461 100539 100618 100693 100759 100811 100844
          100855 99921.9 99922.1 99922.5 99922.6 99997.2 99999.9 100000 100000 100001 100076 100086
          100104 100131 100165 100206 100255 100310 100370 100433 100495 100554 100605 100645
          100670 100679 99904.5 99905.1 99906.9 99905.7 99994.8 99997.8 99998.3 99998.5 99998.5 100037
          100048 100067 100091 100121 100158 100200 100247 100298 100350 100402 100450 100491
          100523 100543 100550 99883.6 99884.9 99889 99901.1 99909.1 99925.8 99941.1 99957 99975.5
          99994.5 100013 100032 100056 100084 100118 100156 100198 100244 100290 100335 100377
          100413 100441 100458 100464 99858.5 99860 99865.2 99873.9 99884.9 99898.4 99913.5 99929.4
          99946.4 99964.3 99982.6 100003 100026 100053 100086 100123 100164 100207 100251 100295
          100335 100369 100395 100412 100417
        </DataArray>
        <DataArray type="Float32" Name="density_l" NumberOfComponents="1" format="ascii">
          997.068 997.068 997.068 997.068 997.068 997.068 997.068 997.068 997.068 997.068 997.068 997.068
          997.068 997.068 997.068 997.068 997.068 997.068 997.068 997.068 997.068 997.068 997.068 997.068
          997.068 997.068 997.068 997.068 997.068 997.068 997.068 997.068 997.069 997.069 997.069 997.069
          997.069 997.069 997.069 997.069 997.068 997.068 997.062 997.062 997.057 997.057 997.059 997.059
          997.093 997.093 997.068 997.068 997.068 997.068 997.068 997.068 997.068 997.068 997.068 997.068
          997.068 997.068 997.068 997.068 997.068 997.068 997.068 997.069 997.069 997.069 997.068 997.063
          997.057 997.058 997.093 997.068 997.068 997.068 997.068 997.068 997.068 997.068 997.068 997.068
          997.068 997.068 997.068 997.068 997.068 997.068 997.068 997.068 997.069 997.069 997.069 997.069
          997.065 997.056 997.057 997.093 997.068 997.068 997.068 997.068 997.068 997.068 997.068 997.068
          997.068 997.068 997.068 997.068 997.068 997.068 997.068 997.068 997.068 997.069 997.069 997.069
          997.069 997.068 997.063 997.055 997.093 997.068 997.068 997.068 997.068 997.068 997.068 997.068
          997.068 997.068 997.068 997.068 997.068 997.068 997.068 997.068 997.068 997.068 997.068 997.069
          997.069 997.069 997.066 997.058 997.058 997.053 997.068 997.068 997.068 997.068 997.068 997.068
          997.068 997.068 997.068 997.068 997.068 997.068 997.068 997.068 997.068 997.068 997.068 997.068
          997.069 997.069 997.069 997.068 997.064 997.059 997.062 997.068 997.068 997.068 997.068 997.068
          997.068 997.068 997.068 997.068 997.068 997.068 997.068 997.068 997.068 997.068 997.068 997.068
          997.068 997.068 997.069 997.069 997.069 997.068 997.066 997.068 997.068 997.068 997.068 997.068
          997.068 997.068 997.068 997.068 997.068 997.068 997.068 997.068 997.068 997.068 997.068 997.068
          997.068 997.068 997.068 997.068 997.069 997.069 997.069 997.069 997.069 997.068 997.068 997.068
          997.068 997.068 997.068 997.068 997.068 997.068 997.068 997.068 997.068 997.068 997.068 997.068
          997.068 997.068 997.068 997.068 997.068 997.068 997.068 997.069 997.069 997.069 997.068 997.068
          997.068 997.068 997.068 997.068 997.068 997.068 997.068 997.068 997.068 997.068 997.068 997.068
          997.068 997.068 997.068 997.068 997.068 997.068 997.068 997.068 997.068 997.068 997.068 997.068
          997.068 997.068 997.068 997.068 997.068 997.068 997.068 997.068 997.068 997.068 997.068 997.068
          997.068 997.068 997.068 997.068 997.068 997.068 997.068 997.068 997.068 997.068 997.068 997.068
          997.068 997.068 997.068 997.068 997.068 997.068 997.068 997.068 997.068 997.068 997.068 997.068
          997.068 997.068 997.068 997.068 997.068 997.068 997.068 997.068 997.068 997.068 997.068 997.068
          997.068 997.068 997.068 997.068 997.068 997.068 997.068 997.068 997.068 997.068 997.068 997.068
          997.068 997.068 997.068 997.068 997.068 997.068 997.068 997.068 997.068 997.068 997.068 997.068
          997.068 997.068 997.068 997.068 997.068 997.068 997.068 997.068 997.068 997.068 997.068 997.068
          997.068 997.068 997.068 997.068 997.068 997.068 997.068 997.068 997.068 997.068 997.068 997.068
          997.068 997.068 997.068 997.068 997.068 997.068 997.068 997.068 997.068 997.068 997.068 997.068
          997.068 997.068 997.068 997.068 997.068 997.068 997.068 997.068 997.068 997.068 997.068 997.068
          997.068 997.068 997.068 997.068 997.068 997.068 997.068 997.068 997.068 997.068 997.068 997.068
          997.068 997.068 997.068 997.068 997.068 997.068 997.068 997.068 997.068 997.068 997.068 997.068
          997.068 997.068 997.068 997.068 997.068
        </DataArray>
        <DataArray type="Float32" Name="density_g" NumberOfComponents="1" format="ascii">
          1.126 1.12648 1.126 1.12626 1.1267 1.12644 1.12681 1.12652 1.12606 1.12603 1.12602 1.126
          1.12602 1.126 1.12602 1.12601 1.12621 1.12618 1.13251 1.13215 1.13283 1.1325 1.13354 1.1332
          1.13466 1.13431 1.13624 1.13588 1.13837 1.13798 1.14113 1.14071 1.14466 1.1442 1.14911 1.14859
          1.15468 1.15407 1.16161 1.16085 1.16997 1.169 1.17855 1.17739 1.18603 1.18545 1.23681 1.22438
          1.4558 1.4558 1.126 1.12615 1.12626 1.12632 1.12602 1.126 1.126 1.126 1.12616 1.13177
          1.13211 1.1328 1.13388 1.1354 1.13744 1.14008 1.14344 1.14766 1.15289 1.15929 1.16686 1.17439
          1.17955 1.21458 1.4558 1.126 1.12608 1.12615 1.12618 1.12601 1.126 1.126 1.126 1.12615
          1.13137 1.1317 1.13236 1.13339 1.13484 1.13677 1.13927 1.14244 1.14639 1.15126 1.15715 1.16403
          1.1707 1.1709 1.19537 1.4558 1.126 1.12603 1.12606 1.12608 1.12601 1.126 1.126 1.126
          1.12613 1.13094 1.13125 1.13187 1.13284 1.13419 1.13599 1.13831 1.14123 1.14485 1.14928 1.15461
          1.16092 1.16794 1.17334 1.14582 1.4558 1.12597 1.12598 1.12599 1.126 1.126 1.126 1.126
          1.126 1.12612 1.1305 1.13078 1.13135 1.13224 1.13348 1.13512 1.13722 1.13986 1.1431 1.14704
          1.15177 1.15737 1.16359 1.16866 1.20659 1.09397 1.12591 1.12592 1.12592 1.12592 1.126 1.126
          1.126 1.126 1.1261 1.13004 1.13029 1.13081 1.13161 1.13273 1.1342 1.13606 1.13839 1.14122
          1.14462 1.14866 1.15344 1.15907 1.1654 1.16144 1.15853 1.12584 1.12584 1.12585 1.12585 1.126
          1.126 1.126 1.126 1.12609 1.12957 1.1298 1.13026 1.13097 1.13195 1.13324 1.13487 1.13687
          1.13928 1.14212 1.14542 1.14914 1.15311 1.15615 1.15662 1.15689 1.12576 1.12576 1.12576 1.12577
          1.126 1.126 1.126 1.126 1.12608 1.1291 1.1293 1.12971 1.13033 1.13118 1.13229 1.13368
          1.13536 1.13736 1.13967 1.14225 1.14499 1.14763 1.14965 1.1507 1.15103 1.12567 1.12567 1.12567
          1.12567 1.12599 1.126 1.126 1.126 1.12606 1.12863 1.12881 1.12916 1.12969 1.13043 1.13137
          1.13253 1.13392 1.13555 1.13737 1.13935 1.14136 1.14321 1.14465 1.14553 1.14582 1.12556 1.12556
          1.12556 1.12556 1.12599 1.126 1.126 1.126 1.12605 1.12818 1.12833 1.12863 1.12909 1.1297
          1.13049 1.13146 1.13259 1.13389 1.13532 1.13683 1.13831 1.13965 1.1407 1.14137 1.14159 1.12544
          1.12544 1.12544 1.12544 1.12598 1.126 1.126 1.126 1.12604 1.12773 1.12786 1.12812 1.12851
          1.12903 1.12969 1.13048 1.1314 1.13244 1.13356 1.13471 1.13582 1.1368 1.13758 1.13807 1.13824
          1.12529 1.12529 1.12529 1.1253 1.12598 1.126 1.126 1.126 1.12602 1.12729 1.12741 1.12764
          1.12797 1.12841 1.12896 1.12962 1.13037 1.1312 1.13208 1.13296 1.13381 1.13455 1.13513 1.1355
          1.13563 1.12512 1.12513 1.12513 1.12513 1.12597 1.126 1.126 1.126 1.12601 1.12686 1.12697
          1.12718 1.12747 1.12786 1.12833 1.12887 1.1295 1.13017 1.13088 1.13158 1.13224 1.13282 1.13326
          1.13355 1.13365 1.12493 1.12493 1.12495 1.12494 1.12594 1.12598 1.12598 1.12599 1.12599 1.12642
          1.12655 1.12675 1.12703 1.12737 1.12778 1.12826 1.12879 1.12936 1.12994 1.13053 1.13107 1.13153
          1.13189 1.13212 1.1322 1.12469 1.12471 1.12475 1.12489 1.12498 1.12517 1.12534 1.12552 1.12573
          1.12594 1.12615 1.12637 1.12663 1.12695 1.12733 1.12776 1.12824 1.12875 1.12927 1.12978 1.13025
          1.13065 1.13097 1.13116 1.13123 1.12441 1.12443 1.12448 1.12458 1.12471 1.12486 1.12503 1.12521
          1.1254 1.1256 1.12581 1.12603 1.12629 1.1266 1.12697 1.12739 1.12785 1.12833 1.12883 1.12932
          1.12977 1.13016 1.13045 1.13064 1.1307
        </DataArray>
        <DataArray type="Float32" Name="saturation_l" NumberOfComponents="1" format="ascii">
          0 0 0 0 0 0 0 0 0 0 0 0
          0 0 0 0 0 0 0 0 0 0 0 0
          0 0 0 0 0 0 0 0 0 0 0 0
          0 0 0 0 0 0 0 0 0.006919 0.00525996 0.641256 0.553846
          1 1 0 0 0 0 0 0 0 0 0 0
          0 0 0 0 0 0 0 0 0 0 0 0
          0.00454974 0.558084 1 0 0 0 0 0 0 0 0 0
          0 0 0 0 0 0 0 0 0 0 0 0
          0 0.00241125 0.560839 1 0 0 0 0 0 0 0 0
          0 0 0 0 0 0 0 0 0 0 0 0
          0 0 0 0.474002 1 0 0 0 0 0 0 0
          0 0 0 0 0 0 0 0 0 0 0 0
          0 0 0 0 0.00780074 0.291804 0 0 0 0 0 0
          0 0 0 0 0 0 0 0 0 0 0 0
          0 0 0 0 0 0 0 0 0 0 0 0
          0 0 0 0 0 0 0 0 0 0 0 0
          0 0 0 0 0 0 0 0 0 0 0 0
          0 0 0 0 0 0 0 0 0 0 0 0
          0 0 0 0 0 0 0 0 0 0 0 0
          0 0 0 0 0 0 0 0 0 0 0 0
          0 0 0 0 0 0 0 0 0 0 0 0
          0 0 0 0 0 0 0 0 0 0 0 0
          0 0 0 0 0 0 0 0 0 0 0 0
          0 0 0 0 0 0 0 0 0 0 0 0
          0 0 0 0 0 0 0 0 0 0 0 0
          0 0 0 0 0 0 0 0 0 0 0 0
          0 0 0 0 0 0 0 0 0 0 0 0
          0 0 0 0 0 0 0 0 0 0 0 0
          0 0 0 0 0 0 0 0 0 0 0 0
          0 0 0 0 0 0 0 0 0 0 0 0
          0 0 0 0 0 0 0 0 0 0 0 0
          0 0 0 0 0 0 0 0 0 0 0 0
          0 0 0 0 0 0 0 0 0 0 0 0
          0 0 0 0 0 0 0 0 0 0 0 0
          0 0 0 0 0 0 0 0 0 0 0 0
          0 0 0 0 0
        </DataArray>
        <DataArray type="Float32" Name="saturation_g" NumberOfComponents="1" format="ascii">
          1 1 1 1 1 1 1 1 1 1 1 1
          1 1 1 1 1 1 1 1 1 1 1 1
          1 1 1 1 1 1 1 1 1 1 1 1
          1 1 1 1 1 1 1 1 0.993081 0.99474 0.358744 0.446154
          0 0 1 1 1 1 1 1 1 1 1 1
          1 1 1 1 1 1 1 1 1 1 1 1
          0.99545 0.441916 0 1 1 1 1 1 1 1 1 1
          1 1 1 1 1 1 1 1 1 1 1 1
          1 0.997589 0.439161 0 1 1 1 1 1 1 1 1
          1 1 1 1 1 1 1 1 1 1 1 1
          1 1 1 0.525998 0 1 1 1 1 1 1 1
          1 1 1 1 1 1 1 1 1 1 1 1
          1 1 1 1 0.992199 0.708196 1 1 1 1 1 1
          1 1 1 1 1 1 1 1 1 1 1 1
          1 1 1 1 1 1 1 1 1 1 1 1
          1 1 1 1 1 1 1 1 1 1 1 1
          1 1 1 1 1 1 1 1 1 1 1 1
          1 1 1 1 1 1 1 1 1 1 1 1
          1 1 1 1 1 1 1 1 1 1 1 1
          1 1 1 1 1 1 1 1 1 1 1 1
          1 1 1 1 1 1 1 1 1 1 1 1
          1 1 1 1 1 1 1 1 1 1 1 1
          1 1 1 1 1 1 1 1 1 1 1 1
          1 1 1 1 1 1 1 1 1 1 1 1
          1 1 1 1 1 1 1 1 1 1 1 1
          1 1 1 1 1 1 1 1 1 1 1 1
          1 1 1 1 1 1 1 1 1 1 1 1
          1 1 1 1 1 1 1 1 1 1 1 1
          1 1 1 1 1 1 1 1 1 1 1 1
          1 1 1 1 1 1 1 1 1 1 1 1
          1 1 1 1 1 1 1 1 1 1 1 1
          1 1 1 1 1 1 1 1 1 1 1 1
          1 1 1 1 1 1 1 1 1 1 1 1
          1 1 1 1 1 1 1 1 1 1 1 1
          1 1 1 1 1 1 1 1 1 1 1 1
          1 1 1 1 1
        </DataArray>
        <DataArray type="Float32" Name="relativePerm_l" NumberOfComponents="1" format="ascii">
          0 0 0 0 0 0 0 0 0 0 0 0
          0 0 0 0 0 0 0 0 0 0 0 0
          0 0 0 0 0 0 0 0 0 0 0 0
          0 0 0 0 0 0 0 0 0.000432894 0.000249164 0.649103 0.556838
          1 1 0 0 0 0 0 0 0 0 0 0
          0 0 0 0 0 0 0 0 0 0 0 0
          0.000186094 0.561311 1 0 0 0 0 0 0 0 0 0
          0 0 0 0 0 0 0 0 0 0 0 0
          0 5.19926e-05 0.564219 1 0 0 0 0 0 0 0 0
          0 0 0 0 0 0 0 0 0 0 0 0
          0 0 0 0.472558 1 0 0 0 0 0 0 0
          0 0 0 0 0 0 0 0 0 0 0 0
          0 0 0 0 0.000551451 0.280237 0 0 0 0 0 0
          0 0 0 0 0 0 0 0 0 0 0 0
          0 0 0 0 0 0 0 0 0 0 0 0
          0 0 0 0 0 0 0 0 0 0 0 0
          0 0 0 0 0 0 0 0 0 0 0 0
          0 0 0 0 0 0 0 0 0 0 0 0
          0 0 0 0 0 0 0 0 0 0 0 0
          0 0 0 0 0 0 0 0 0 0 0 0
          0 0 0 0 0 0 0 0 0 0 0 0
          0 0 0 0 0 0 0 0 0 0 0 0
          0 0 0 0 0 0 0 0 0 0 0 0
          0 0 0 0 0 0 0 0 0 0 0 0
          0 0 0 0 0 0 0 0 0 0 0 0
          0 0 0 0 0 0 0 0 0 0 0 0
          0 0 0 0 0 0 0 0 0 0 0 0
          0 0 0 0 0 0 0 0 0 0 0 0
          0 0 0 0 0 0 0 0 0 0 0 0
          0 0 0 0 0 0 0 0 0 0 0 0
          0 0 0 0 0 0 0 0 0 0 0 0
          0 0 0 0 0 0 0 0 0 0 0 0
          0 0 0 0 0 0 0 0 0 0 0 0
          0 0 0 0 0 0 0 0 0 0 0 0
          0 0 0 0 0 0 0 0 0 0 0 0
          0 0 0 0 0
        </DataArray>
        <DataArray type="Float32" Name="relativePerm_g" NumberOfComponents="1" format="ascii">
          1 1 1 1 1 1 1 1 1 1 1 1
          1 1 1 1 1 1 1 1 1 1 1 1
          1 1 1 1 1 1 1 1 1 1 1 1
          1 1 1 1 1 1 1 1 0.999567 0.999751 0.350897 0.443162
          0 0 1 1 1 1 1 1 1 1 1 1
          1 1 1 1 1 1 1 1 1 1 1 1
          0.999814 0.438689 0 1 1 1 1 1 1 1 1 1
          1 1 1 1 1 1 1 1 1 1 1 1
          1 0.999948 0.435781 0 1 1 1 1 1 1 1 1
          1 1 1 1 1 1 1 1 1 1 1 1
          1 1 1 0.527442 0 1 1 1 1 1 1 1
          1 1 1 1 1 1 1 1 1 1 1 1
          1 1 1 1 0.999449 0.719763 1 1 1 1 1 1
          1 1 1 1 1 1 1 1 1 1 1 1
          1 1 1 1 1 1 1 1 1 1 1 1
          1 1 1 1 1 1 1 1 1 1 1 1
          1 1 1 1 1 1 1 1 1 1 1 1
          1 1 1 1 1 1 1 1 1 1 1 1
          1 1 1 1 1 1 1 1 1 1 1 1
          1 1 1 1 1 1 1 1 1 1 1 1
          1 1 1 1 1 1 1 1 1 1 1 1
          1 1 1 1 1 1 1 1 1 1 1 1
          1 1 1 1 1 1 1 1 1 1 1 1
          1 1 1 1 1 1 1 1 1 1 1 1
          1 1 1 1 1 1 1 1 1 1 1 1
          1 1 1 1 1 1 1 1 1 1 1 1
          1 1 1 1 1 1 1 1 1 1 1 1
          1 1 1 1 1 1 1 1 1 1 1 1
          1 1 1 1 1 1 1 1 1 1 1 1
          1 1 1 1 1 1 1 1 1 1 1 1
          1 1 1 1 1 1 1 1 1 1 1 1
          1 1 1 1 1 1 1 1 1 1 1 1
          1 1 1 1 1 1 1 1 1 1 1 1
          1 1 1 1 1 1 1 1 1 1 1 1
          1 1 1 1 1 1 1 1 1 1 1 1
          1 1 1 1 1
        </DataArray>
        <DataArray type="Float32" Name="porosity" NumberOfComponents="1" format="ascii">
          0.3 0.3 0.3 0.3 0.3 0.3 0.3 0.3 0.3 0.3 0.3 0.3
          0.3 0.3 0.3 0.3 0.3 0.3 0.3 0.3 0.3 0.3 0.3 0.3
          0.3 0.3 0.3 0.3 0.3 0.3 0.3 0.3 0.3 0.3 0.3 0.3
          0.3 0.3 0.3 0.3 0.3 0.3 0.3 0.3 0.3 0.3 0.3 0.3
          0.3 0.3 0.3 0.3 0.3 0.3 0.3 0.3 0.3 0.3 0.3 0.3
          0.3 0.3 0.3 0.3 0.3 0.3 0.3 0.3 0.3 0.3 0.3 0.3
          0.3 0.3 0.3 0.3 0.3 0.3 0.3 0.3 0.3 0.3 0.3 0.3
          0.3 0.3 0.3 0.3 0.3 0.3 0.3 0.3 0.3 0.3 0.3 0.3
          0.3 0.3 0.3 0.3 0.3 0.3 0.3 0.3 0.3 0.3 0.3 0.3
          0.3 0.3 0.3 0.3 0.3 0.3 0.3 0.3 0.3 0.3 0.3 0.3
          0.3 0.3 0.3 0.3 0.3 0.3 0.3 0.3 0.3 0.3 0.3 0.3
          0.3 0.3 0.3 0.3 0.3 0.3 0.3 0.3 0.3 0.3 0.3 0.3
          0.3 0.3 0.3 0.3 0.3 0.3 0.3 0.3 0.3 0.3 0.3 0.3
          0.3 0.3 0.3 0.3 0.3 0.3 0.3 0.3 0.3 0.3 0.3 0.3
          0.3 0.3 0.3 0.3 0.3 0.3 0.3 0.3 0.3 0.3 0.3 0.3
          0.3 0.3 0.3 0.3 0.3 0.3 0.3 0.3 0.3 0.3 0.3 0.3
          0.3 0.3 0.3 0.3 0.3 0.3 0.3 0.3 0.3 0.3 0.3 0.3
          0.3 0.3 0.3 0.3 0.3 0.3 0.3 0.3 0.3 0.3 0.3 0.3
          0.3 0.3 0.3 0.3 0.3 0.3 0.3 0.3 0.3 0.3 0.3 0.3
          0.3 0.3 0.3 0.3 0.3 0.3 0.3 0.3 0.3 0.3 0.3 0.3
          0.3 0.3 0.3 0.3 0.3 0.3 0.3 0.3 0.3 0.3 0.3 0.3
          0.3 0.3 0.3 0.3 0.3 0.3 0.3 0.3 0.3 0.3 0.3 0.3
          0.3 0.3 0.3 0.3 0.3 0.3 0.3 0.3 0.3 0.3 0.3 0.3
          0.3 0.3 0.3 0.3 0.3 0.3 0.3 0.3 0.3 0.3 0.3 0.3
          0.3 0.3 0.3 0.3 0.3 0.3 0.3 0.3 0.3 0.3 0.3 0.3
          0.3 0.3 0.3 0.3 0.3 0.3 0.3 0.3 0.3 0.3 0.3 0.3
          0.3 0.3 0.3 0.3 0.3 0.3 0.3 0.3 0.3 0.3 0.3 0.3
          0.3 0.3 0.3 0.3 0.3 0.3 0.3 0.3 0.3 0.3 0.3 0.3
          0.3 0.3 0.3 0.3 0.3 0.3 0.3 0.3 0.3 0.3 0.3 0.3
          0.3 0.3 0.3 0.3 0.3 0.3 0.3 0.3 0.3 0.3 0.3 0.3
          0.3 0.3 0.3 0.3 0.3 0.3 0.3 0.3 0.3 0.3 0.3 0.3
          0.3 0.3 0.3 0.3 0.3 0.3 0.3 0.3 0.3 0.3 0.3 0.3
          0.3 0.3 0.3 0.3 0.3 0.3 0.3 0.3 0.3 0.3 0.3 0.3
          0.3 0.3 0.3 0.3 0.3 0.3 0.3 0.3 0.3 0.3 0.3 0.3
          0.3 0.3 0.3 0.3 0.3 0.3 0.3 0.3 0.3 0.3 0.3 0.3
          0.3 0.3 0.3 0.3 0.3
        </DataArray>
        <DataArray type="Float32" Name="moleFrac_l^H2O" NumberOfComponents="1" format="ascii">
          0.315483 0.315617 0.315483 0.315555 0.315678 0.315604 0.31571 0.315627 0.315498 0.31549 0.315488 0.315483
          0.315488 0.315483 0.315488 0.315483 0.31554 0.315532 0.317306 0.317206 0.317396 0.317302 0.317595 0.317499
          0.317908 0.31781 0.318352 0.318249 0.318946 0.318837 0.319721 0.319603 0.32071 0.32058 0.321965 0.321816
          0.323677 0.323482 0.328016 0.327498 0.357011 0.353864 0.549182 0.531153 0.999988 0.999988 0.999988 0.999988
          1 1 0.315483 0.315524 0.315555 0.315571 0.315487 0.315483 0.315483 0.315483 0.315527 0.3171
          0.317195 0.317388 0.31769 0.318116 0.318687 0.319427 0.320369 0.321555 0.323104 0.326353 0.346459 0.495943
          0.999988 0.999988 1 0.315483 0.315505 0.315523 0.315532 0.315485 0.315483 0.315483 0.315483 0.315523
          0.316987 0.317078 0.317263 0.317552 0.317958 0.318499 0.3192 0.320088 0.321197 0.322598 0.324963 0.336789
          0.435282 0.999988 0.999988 1 0.315483 0.31549 0.315499 0.315504 0.315484 0.315483 0.315483 0.315483
          0.315519 0.316867 0.316953 0.317127 0.317397 0.317776 0.31828 0.31893 0.319748 0.320764 0.322009 0.323603
          0.326888 0.346068 0.492178 0.999988 1 0.315474 0.315475 0.315479 0.315482 0.315483 0.315483 0.315483
          0.315483 0.315515 0.316742 0.316821 0.316982 0.31723 0.317578 0.318037 0.318627 0.319365 0.320274 0.32139
          0.322999 0.329558 0.391379 0.789841 0.999988 0.999989 0.315457 0.315458 0.31546 0.315461 0.315482 0.315483
          0.315483 0.315483 0.315511 0.316613 0.316685 0.31683 0.317055 0.317367 0.317778 0.318301 0.318952 0.319746
          0.320701 0.321879 0.324106 0.337603 0.432 0.695839 0.492534 0.315438 0.315438 0.315439 0.31544 0.315482
          0.315483 0.315483 0.315483 0.315507 0.316482 0.316546 0.316675 0.316875 0.31715 0.317511 0.317966 0.318527
          0.319202 0.319999 0.320925 0.322044 0.324313 0.336213 0.374124 0.335632 0.315415 0.315415 0.315416 0.315416
          0.315481 0.315483 0.315483 0.315483 0.315504 0.31635 0.316407 0.31652 0.316694 0.316933 0.317244 0.317633
          0.318105 0.318664 0.319311 0.320034 0.320808 0.321615 0.322927 0.326176 0.323219 0.315389 0.315389 0.315389
          0.31539 0.31548 0.315483 0.315483 0.315483 0.3155 0.31622 0.316269 0.316367 0.316517 0.316722 0.316985
          0.317311 0.317702 0.318156 0.318668 0.319222 0.319785 0.320306 0.320744 0.321143 0.32107 0.315359 0.315359
          0.315359 0.31536 0.315479 0.315483 0.315483 0.315483 0.315496 0.316091 0.316134 0.316218 0.316346 0.31652
          0.316741 0.31701 0.317329 0.317693 0.318094 0.318516 0.318932 0.319307 0.319603 0.319794 0.319852 0.315324
          0.315324 0.315324 0.315325 0.315477 0.315483 0.315483 0.315483 0.315492 0.315966 0.316003 0.316076 0.316185
          0.316331 0.316515 0.316737 0.316996 0.317286 0.317599 0.317921 0.318232 0.318509 0.318726 0.318865 0.318912
          0.315283 0.315283 0.315284 0.315285 0.315476 0.315483 0.315483 0.315483 0.315489 0.315844 0.315877 0.31594
          0.316034 0.316158 0.316312 0.316495 0.316706 0.316938 0.317184 0.317433 0.31767 0.317878 0.318041 0.318145
          0.31818 0.315236 0.315237 0.315238 0.315239 0.315474 0.315482 0.315483 0.315483 0.315485 0.315723 0.315754
          0.315812 0.315895 0.316002 0.316133 0.316287 0.316461 0.31665 0.316848 0.317045 0.317231 0.317392 0.317517
          0.317597 0.317624 0.315181 0.315183 0.315189 0.315185 0.315466 0.315476 0.315477 0.315478 0.315478 0.315599
          0.315635 0.315693 0.31577 0.315866 0.315981 0.316114 0.316262 0.316422 0.316587 0.31675 0.316901 0.317032
          0.317133 0.317197 0.317219 0.315116 0.315119 0.315133 0.315171 0.315196 0.315248 0.315297 0.315347 0.315405
          0.315465 0.315524 0.315585 0.315659 0.315748 0.315854 0.315975 0.316108 0.316251 0.316397 0.31654 0.316672
          0.316786 0.316873 0.316928 0.316947 0.315036 0.315041 0.315057 0.315085 0.315119 0.315162 0.31521 0.31526
          0.315314 0.31537 0.315428 0.315491 0.315564 0.315651 0.315753 0.31587 0.315999 0.316136 0.316276 0.316413
          0.316539 0.316647 0.316729 0.316782 0.316799
        </DataArray>
        <DataArray type="Float32" Name="moleFrac_l^N2" NumberOfComponents="1" format="ascii">
          1.14721e-05 1.1477e-05 1.14721e-05 1.14747e-05 1.14792e-05 1.14765e-05 1.14804e-05 1.14774e-05 1.14727e-05 1.14724e-05 1.14723e-05 1.14721e-05
          1.14723e-05 1.14721e-05 1.14723e-05 1.14721e-05 1.14742e-05 1.14739e-05 1.15384e-05 1.15348e-05 1.15417e-05 1.15383e-05 1.15489e-05 1.15454e-05
          1.15603e-05 1.15567e-05 1.15764e-05 1.15727e-05 1.15981e-05 1.15941e-05 1.16262e-05 1.16219e-05 1.16622e-05 1.16575e-05 1.17076e-05 1.17022e-05
          1.17643e-05 1.1758e-05 1.18342e-05 1.18266e-05 1.19132e-05 1.19039e-05 1.19556e-05 1.1948e-05 1.19255e-05 1.19195e-05 1.24462e-05 1.23187e-05
          0 0 1.14721e-05 1.14736e-05 1.14747e-05 1.14753e-05 1.14723e-05 1.14721e-05 1.14721e-05 1.14721e-05 1.14737e-05 1.15309e-05
          1.15344e-05 1.15414e-05 1.15524e-05 1.15679e-05 1.15886e-05 1.16156e-05 1.16498e-05 1.16928e-05 1.1746e-05 1.18109e-05 1.18838e-05 1.19256e-05
          1.1859e-05 1.22182e-05 0 1.14721e-05 1.14729e-05 1.14736e-05 1.14739e-05 1.14722e-05 1.14721e-05 1.14721e-05 1.14721e-05 1.14736e-05
          1.15268e-05 1.15301e-05 1.15369e-05 1.15474e-05 1.15621e-05 1.15818e-05 1.16073e-05 1.16396e-05 1.16799e-05 1.17294e-05 1.17892e-05 1.1857e-05
          1.19021e-05 1.17704e-05 1.20213e-05 0 1.14721e-05 1.14724e-05 1.14727e-05 1.14729e-05 1.14722e-05 1.14721e-05 1.14721e-05 1.14721e-05
          1.14734e-05 1.15225e-05 1.15256e-05 1.15319e-05 1.15417e-05 1.15555e-05 1.15738e-05 1.15975e-05 1.16272e-05 1.16641e-05 1.17093e-05 1.17636e-05
          1.18274e-05 1.18949e-05 1.19157e-05 1.15132e-05 0 1.14718e-05 1.14718e-05 1.1472e-05 1.14721e-05 1.14721e-05 1.14721e-05 1.14721e-05
          1.14721e-05 1.14733e-05 1.15179e-05 1.15208e-05 1.15266e-05 1.15357e-05 1.15483e-05 1.1565e-05 1.15864e-05 1.16133e-05 1.16463e-05 1.16864e-05
          1.17345e-05 1.17904e-05 1.18396e-05 1.17971e-05 1.21363e-05 1.09815e-05 1.14712e-05 1.14712e-05 1.14713e-05 1.14713e-05 1.14721e-05 1.14721e-05
          1.14721e-05 1.14721e-05 1.14731e-05 1.15132e-05 1.15158e-05 1.15211e-05 1.15293e-05 1.15406e-05 1.15556e-05 1.15746e-05 1.15983e-05 1.16271e-05
          1.16618e-05 1.1703e-05 1.17514e-05 1.1806e-05 1.18485e-05 1.17454e-05 1.17637e-05 1.14705e-05 1.14705e-05 1.14705e-05 1.14705e-05 1.14721e-05
          1.14721e-05 1.14721e-05 1.14721e-05 1.1473e-05 1.15084e-05 1.15108e-05 1.15155e-05 1.15227e-05 1.15327e-05 1.15459e-05 1.15624e-05 1.15828e-05
          1.16073e-05 1.16363e-05 1.16699e-05 1.17078e-05 1.17479e-05 1.17763e-05 1.17721e-05 1.1784e-05 1.14697e-05 1.14697e-05 1.14697e-05 1.14697e-05
          1.1472e-05 1.14721e-05 1.14721e-05 1.14721e-05 1.14729e-05 1.15037e-05 1.15057e-05 1.15098e-05 1.15162e-05 1.15249e-05 1.15362e-05 1.15503e-05
          1.15675e-05 1.15878e-05 1.16113e-05 1.16376e-05 1.16656e-05 1.16924e-05 1.17129e-05 1.17229e-05 1.17269e-05 1.14687e-05 1.14687e-05 1.14687e-05
          1.14687e-05 1.1472e-05 1.14721e-05 1.14721e-05 1.14721e-05 1.14727e-05 1.14989e-05 1.15007e-05 1.15043e-05 1.15097e-05 1.15172e-05 1.15267e-05