<?xml version="1.0"?>
<VTKFile type="UnstructuredGrid" version="0.1" byte_order="LittleEndian">
  <UnstructuredGrid>
    <Piece NumberOfCells="324" NumberOfPoints="361">
      <PointData Scalars="P" Vectors="v">
        <DataArray type="Float32" Name="P" NumberOfComponents="1" format="ascii">
          100024 100024 100023 100023 100024 100023 100024 100023 100024 100023 100024 100023
          100024 100023 100024 100023 100024 100023 100024 100023 100024 100023 100024 100023
          100024 100023 100024 100023 100024 100023 100024 100023 100024 100023 100024 100023
          100024 100023 100022 100022 100022 100022 100022 100022 100022 100022 100022 100022
          100022 100022 100022 100022 100022 100022 100022 100022 100022 100022 100022 100022
          100022 100022 100022 100022 100022 100022 100022 100022 100022 100022 100022 100022
          100022 100022 100022 100022 100021 100021 100021 100021 100021 100021 100021 100021
          100021 100021 100021 100021 100021 100021 100021 100021 100021 100021 100021 100020
          100020 100020 100020 100020 100020 100020 100020 100020 100020 100020 100020 100020
          100020 100020 100020 100020 100020 100020 100020 100020 100020 100020 100020 100020
          100020 100020 100020 100020 100020 100020 100020 100020 100020 100020 100020 100020
          100020 100019 100019 100019 100019 100019 100019 100019 100019 100019 100019 100019
          100019 100019 100019 100019 100019 100019 100019 100019 100018 100018 100018 100018
          100018 100018 100018 100018 100018 100018 100018 100018 100018 100018 100018 100018
          100018 100018 100018 100018 100018 100018 100018 100018 100018 100018 100018 100018
          100018 100018 100018 100018 100018 100018 100018 100018 100018 100018 100017 100017
          100017 100017 100017 100017 100017 100017 100017 100017 100017 100017 100017 100017
          100017 100017 100017 100017 100017 100016 100016 100016 100016 100016 100016 100016
          100016 100016 100016 100016 100016 100016 100016 100016 100016 100016 100016 100016
          100016 100016 100016 100016 100016 100016 100016 100016 100016 100016 100016 100016
          100016 100016 100016 100016 100016 100016 100016 100015 100015 100015 100015 100015
          100015 100015 100015 100015 100015 100015 100015 100015 100015 100015 100015 100015
          100015 100015 100014 100014 100014 100014 100014 100014 100014 100014 100014 100014
          100014 100014 100014 100014 100014 100014 100014 100014 100014 100014 100014 100014
          100014 100014 100014 100014 100014 100014 100014 100014 100014 100014 100014 100014
          100014 100014 100014 100014 100013 100013 100013 100013 100013 100013 100013 100013
          100013 100013 100013 100013 100013 100013 100013 100013 100013 100013 100013 100012
          100012 100012 100012 100012 100012 100012 100012 100012 100012 100012 100012 100012
          100012 100012 100012 100012 100012 100012 100012 100012 100012 100012 100012 100012
          100012 100012 100012 100012 100012 100012 100012 100012 100012 100012 100012 100012
          100012
        </DataArray>
        <DataArray type="Float32" Name="delP" NumberOfComponents="1" format="ascii">
          23.7322 23.7322 23.0617 23.0617 23.7322 23.0617 23.7322 23.0617 23.7322 23.0617 23.7322 23.0617
          23.7322 23.0617 23.7322 23.0617 23.7322 23.0617 23.7322 23.0617 23.7322 23.0617 23.7322 23.0617
          23.7322 23.0617 23.7322 23.0617 23.7322 23.0617 23.7322 23.0617 23.7322 23.0617 23.7322 23.0617
          23.7322 23.0617 22.3911 22.3911 22.3911 22.3911 22.3912 22.3911 22.3912 22.3911 22.3912 22.3911
          22.3912 22.3911 22.3912 22.3911 22.3912 22.3911 22.3911 22.3911 22.3911 21.7206 21.7206 21.7206
          21.7206 21.7206 21.7206 21.7206 21.7206 21.7206 21.7206 21.7206 21.7206 21.7206 21.7206 21.7206
          21.7206 21.7206 21.7206 21.7206 21.0501 21.0501 21.0501 21.0501 21.0501 21.0501 21.0501 21.0501
          21.0501 21.0501 21.0501 21.0501 21.0501 21.0501 21.0501 21.0501 21.0501 21.0501 21.0501 20.3796
          20.3796 20.3796 20.3796 20.3796 20.3796 20.3796 20.3796 20.3796 20.3796 20.3796 20.3796 20.3796
          20.3796 20.3796 20.3796 20.3796 20.3796 20.3796 19.7091 19.7091 19.7091 19.7091 19.7091 19.7091
          19.7091 19.7091 19.7091 19.7091 19.7091 19.7091 19.7091 19.7091 19.7091 19.7091 19.7091 19.7091
          19.7091 19.0386 19.0386 19.0386 19.0386 19.0386 19.0386 19.0386 19.0386 19.0386 19.0385 19.0386
          19.0386 19.0386 19.0386 19.0386 19.0386 19.0386 19.0386 19.0386 18.3681 18.3681 18.3681 18.3681
          18.3681 18.3681 18.3681 18.368 18.3681 18.368 18.3681 18.368 18.3681 18.3681 18.3681 18.3681
          18.3681 18.3681 18.3681 17.6976 17.6976 17.6976 17.6976 17.6976 17.6976 17.6976 17.6975 17.6976
          17.6975 17.6976 17.6975 17.6976 17.6976 17.6976 17.6976 17.6976 17.6976 17.6976 17.0272 17.0272
          17.0272 17.0271 17.0272 17.0271 17.0271 17.0271 17.0271 17.0271 17.0271 17.0271 17.0271 17.0271
          17.0272 17.0271 17.0272 17.0272 17.0272 16.3567 16.3567 16.3567 16.3567 16.3567 16.3566 16.3566
          16.3566 16.3566 16.3566 16.3566 16.3566 16.3566 16.3566 16.3567 16.3567 16.3567 16.3567 16.3567
          15.6863 15.6863 15.6863 15.6863 15.6863 15.6861 15.6862 15.6861 15.6862 15.6861 15.6862 15.6861
          15.6862 15.6862 15.6863 15.6863 15.6863 15.6863 15.6863 15.0159 15.0159 15.0159 15.0158 15.0159
          15.0157 15.0158 15.0157 15.0157 15.0157 15.0157 15.0157 15.0158 15.0157 15.0159 15.0158 15.0159
          15.0159 15.0159 14.3455 14.3455 14.3455 14.3454 14.3455 14.3453 14.3454 14.3453 14.3453 14.3453
          14.3453 14.3453 14.3454 14.3453 14.3455 14.3454 14.3455 14.3455 14.3455 13.6751 13.6751 13.6751
          13.6751 13.6751 13.6749 13.675 13.6749 13.675 13.6749 13.675 13.6749 13.675 13.6749 13.6751
          13.6751 13.6751 13.6751 13.6751 13.0048 13.0048 13.0048 13.0047 13.0047 13.0046 13.0046 13.0046
          13.0046 13.0046 13.0046 13.0046 13.0046 13.0046 13.0047 13.0047 13.0048 13.0048 13.0048 12.3344
          12.3344 12.3344 12.3344 12.3344 12.3343 12.3343 12.3343 12.3343 12.3343 12.3343 12.3343 12.3343
          12.3343 12.3344 12.3344 12.3344 12.3344 12.3344 11.6641 11.6641 11.6641 11.6641 11.6641 11.6641
          11.6641 11.6641 11.6641 11.6641 11.6641 11.6641 11.6641 11.6641 11.6641 11.6641 11.6641 11.6641
          11.6641
        </DataArray>
        <DataArray type="Float32" Name="X^H2O" NumberOfComponents="1" format="ascii">
          0.0001 0.0001 0.0001 0.0001 0.0001 0.0001 0.0001 0.0001 0.0001 0.0001 0.0001 0.0001
          0.0001 0.0001 0.0001 0.0001 0.0001 0.0001 0.0001 0.0001 0.0001 0.0001 0.0001 0.0001
          0.0001 0.0001 0.0001 0.0001 0.0001 0.0001 0.0001 0.0001 0.0001 0.0001 0.0001 0.0001
          0.0001 0.0001 0.0001 0.0001 0.0001 0.0001 0.0001 0.0001 0.0001 0.0001 0.0001 0.0001
          0.0001 0.0001 0.0001 0.0001 0.0001 0.0001 0.0001 0.0001 0.0001 0.0001 0.0001 0.0001
          0.0001 0.0001 0.0001 0.0001 0.0001 0.0001 0.0001 0.0001 0.0001 0.0001 0.0001 0.0001
          0.0001 0.0001 0.0001 0.0001 0.0001 0.0001 0.0001 0.0001 0.0001 0.0001 0.0001 0.0001
          0.0001 0.0001 0.0001 0.0001 0.0001 0.0001 0.0001 0.0001 0.0001 0.0001 0.0001 0.0001
          0.0001 0.0001 0.0001 0.0001 9.99988e-05 9.99992e-05 9.99995e-05 9.99995e-05 9.99996e-05 9.99995e-05 9.99994e-05 9.99992e-05
          9.99988e-05 0.0001 0.0001 0.0001 0.0001 0.0001 0.0001 0.0001 0.0001 0.0001 9.99998e-05 9.99931e-05
          9.99954e-05 9.99967e-05 9.99973e-05 9.99974e-05 9.99973e-05 9.99967e-05 9.99954e-05 9.99932e-05 0.0001 0.0001 0.0001 0.0001
          0.0001 0.0001 0.0001 0.0001 0.0001 9.99995e-05 9.99779e-05 9.99848e-05 9.99889e-05 9.99907e-05 9.99912e-05 9.99907e-05
          9.99888e-05 9.99847e-05 9.99782e-05 0.0001 0.0001 0.0001 0.0001 0.0001 0.0001 0.0001 0.0001 0.0001
          9.99989e-05 9.99468e-05 9.99622e-05 9.99719e-05 9.99764e-05 9.99777e-05 9.99763e-05 9.99718e-05 9.99621e-05 9.99474e-05 9.99999e-05 0.0001
          0.0001 0.0001 0.0001 0.0001 0.0001 0.0001 0.0001 9.99979e-05 9.98934e-05 9.99221e-05 9.99412e-05 9.99501e-05
          9.99527e-05 9.99501e-05 9.99411e-05 9.99219e-05 9.98944e-05 9.99996e-05 0.0001 0.0001 0.0001 0.0001 0.0001 0.0001
          0.0001 0.0001 9.99964e-05 9.9812e-05 9.98589e-05 9.9892e-05 9.99077e-05 9.99123e-05 9.99076e-05 9.98917e-05 9.98586e-05 9.98136e-05
          9.9999e-05 0.0001 0.0001 0.0001 0.0001 0.0001 0.0001 0.0001 9.99999e-05 9.99943e-05 9.9698e-05 9.9768e-05
          9.98199e-05 9.9845e-05 9.98524e-05 9.98449e-05 9.98196e-05 9.97676e-05 9.97004e-05 9.99979e-05 0.0001 0.0001 0.0001 0.0001
          0.0001 0.0001 0.0001 9.99999e-05 9.99915e-05 9.95481e-05 9.96461e-05 9.97216e-05 9.97587e-05 9.97697e-05 9.97585e-05 9.97211e-05
          9.96456e-05 9.95514e-05 9.99964e-05 0.0001 0.0001 0.0001 0.0001 0.0001 0.0001 0.0001 9.99998e-05 9.99878e-05
          9.93594e-05 9.94912e-05 9.95945e-05 9.96462e-05 9.96614e-05 9.96459e-05 9.95939e-05 9.94906e-05 9.93638e-05 9.99941e-05 0.0001 0.0001
          0.0001 0.0001 0.0001 0.0001 0.0001 9.99998e-05 9.99831e-05 9.91312e-05 9.93034e-05 9.94378e-05 9.95062e-05 9.95264e-05
          9.95059e-05 9.94371e-05 9.93026e-05 9.91366e-05 9.99908e-05 9.99999e-05 0.0001 0.0001 0.0001 0.0001 0.0001 0.0001
          9.99997e-05 9.99767e-05 9.88673e-05 9.90851e-05 9.92529e-05 9.93395e-05 9.93652e-05 9.93391e-05 9.92521e-05 9.90842e-05 9.88738e-05 9.99858e-05
          9.99999e-05 0.0001 0.0001 0.0001 0.0001 0.0001 0.0001 9.99995e-05 9.99683e-05 9.85763e-05 9.88417e-05 9.90434e-05
          9.91487e-05 9.91801e-05 9.91483e-05 9.90425e-05 9.88408e-05 9.85838e-05 9.99785e-05 9.99998e-05 0.0001 0.0001 0.0001 0.0001
          0.0001 0.0001 9.99993e-05 9.99581e-05 9.82705e-05 9.85807e-05 9.88148e-05 9.89385e-05 9.89757e-05 9.89381e-05 9.88139e-05 9.85798e-05
          9.82786e-05 9.9969e-05 9.99997e-05 0.0001 0.0001 0.0001 0.0001 0.000100011 0.000100007 0.000100005 9.99567e-05 9.81231e-05
          9.84516e-05 9.8699e-05 9.88306e-05 9.88699e-05 9.88301e-05 9.86981e-05 9.84507e-05 9.81315e-05 9.99676e-05 0.000100005 0.000100008 0.000100011
          0.0001
        </DataArray>
        <DataArray type="Float32" Name="T" NumberOfComponents="1" format="ascii">
          283.15 283.15 283.15 283.15 283.15 283.15 283.15 283.15 283.15 283.15 283.15 283.15
          283.15 283.15 283.15 283.15 283.15 283.15 283.15 283.15 283.15 283.15 283.15 283.15
          283.15 283.15 283.15 283.15 283.15 283.15 283.15 283.15 283.15 283.15 283.15 283.15
          283.15 283.15 283.15 283.151 283.15 283.15 283.15 283.15 283.15 283.15 283.15 283.15
          283.15 283.15 283.15 283.15 283.15 283.15 283.15 283.151 283.15 283.15 283.153 283.151
          283.15 283.15 283.15 283.15 283.15 283.15 283.15 283.15 283.15 283.15 283.15 283.15
          283.15 283.151 283.153 283.15 283.15 283.155 283.151 283.15 283.15 283.15 283.15 283.15
          283.15 283.15 283.15 283.15 283.15 283.15 283.15 283.15 283.151 283.155 283.15 283.15
          283.157 283.152 283.151 283.15 283.15 283.15 283.15 283.15 283.15 283.15 283.15 283.15
          283.15 283.15 283.151 283.152 283.157 283.15 283.15 283.159 283.153 283.151 283.151 283.151
          283.151 283.151 283.15 283.15 283.15 283.151 283.151 283.151 283.151 283.151 283.153 283.159
          283.15 283.15 283.16 283.154 283.152 283.151 283.153 283.152 283.151 283.151 283.151 283.151
          283.151 283.152 283.153 283.151 283.152 283.154 283.16 283.15 283.15 283.161 283.156 283.153
          283.152 283.156 283.154 283.153 283.153 283.153 283.153 283.153 283.154 283.156 283.151 283.153
          283.156 283.161 283.15 283.15 283.161 283.157 283.154 283.152 283.162 283.159 283.157 283.156
          283.155 283.156 283.157 283.159 283.162 283.152 283.154 283.157 283.161 283.15 283.15 283.161
          283.158 283.154 283.153 283.17 283.165 283.162 283.16 283.16 283.16 283.162 283.165 283.17
          283.153 283.154 283.158 283.161 283.15 283.15 283.161 283.158 283.155 283.154 283.182 283.175
          283.169 283.167 283.166 283.167 283.169 283.175 283.182 283.153 283.155 283.158 283.161 283.15
          283.15 283.161 283.159 283.156 283.155 283.198 283.187 283.179 283.176 283.174 283.176 283.179
          283.187 283.197 283.154 283.156 283.159 283.161 283.15 283.15 283.16 283.159 283.157 283.156
          283.217 283.203 283.192 283.187 283.185 283.187 283.193 283.203 283.217 283.155 283.157 283.159
          283.16 283.15 283.15 283.159 283.159 283.157 283.157 283.24 283.222 283.208 283.201 283.199
          283.201 283.209 283.222 283.24 283.156 283.157 283.159 283.159 283.15 283.15 283.158 283.159
          283.158 283.158 283.267 283.245 283.227 283.218 283.216 283.218 283.227 283.245 283.267 283.157
          283.158 283.159 283.158 283.15 283.15 283.157 283.159 283.158 283.159 283.297 283.269 283.249
          283.238 283.235 283.238 283.249 283.269 283.296 283.158 283.158 283.159 283.157 283.15 283.15
          283.156 283.159 283.158 283.16 283.328 283.296 283.272 283.259 283.255 283.259 283.272 283.296
          283.327 283.159 283.158 283.159 283.156 283.15 283.15 283.157 283.159 283.159 283.161 283.345
          283.31 283.284 283.271 283.266 283.271 283.284 283.31 283.344 283.16 283.159 283.159 283.157
          283.15
        </DataArray>
        <DataArray type="Float32" Name="rho" NumberOfComponents="1" format="ascii">
          1.23034 1.23034 1.23033 1.23033 1.23034 1.23033 1.23034 1.23033 1.23034 1.23033 1.23034 1.23033
          1.23034 1.23033 1.23034 1.23033 1.23034 1.23033 1.23034 1.23033 1.23034 1.23033 1.23034 1.23033
          1.23034 1.23033 1.23034 1.23033 1.23034 1.23033 1.23034 1.23033 1.23034 1.23033 1.23034 1.23033
          1.23034 1.23033 1.23032 1.23031 1.23032 1.23032 1.23032 1.23032 1.23032 1.23032 1.23032 1.23032
          1.23032 1.23032 1.23032 1.23032 1.23032 1.23032 1.23032 1.23031 1.23032 1.23031 1.2303 1.23031
          1.23031 1.23031 1.23031 1.23031 1.23031 1.23031 1.23031 1.23031 1.23031 1.23031 1.23031 1.23031
          1.23031 1.23031 1.2303 1.23031 1.2303 1.23028 1.2303 1.2303 1.2303 1.2303 1.2303 1.2303
          1.2303 1.2303 1.2303 1.2303 1.2303 1.2303 1.2303 1.2303 1.2303 1.23028 1.2303 1.2303
          1.23026 1.23029 1.23029 1.23029 1.23029 1.23029 1.23029 1.23029 1.23029 1.23029 1.23029 1.23029
          1.23029 1.23029 1.23029 1.23029 1.23026 1.2303 1.23029 1.23025 1.23027 1.23028 1.23028 1.23028
          1.23028 1.23029 1.23029 1.23029 1.23029 1.23029 1.23028 1.23028 1.23028 1.23028 1.23027 1.23025
          1.23029 1.23028 1.23023 1.23026 1.23027 1.23027 1.23027 1.23027 1.23027 1.23027 1.23027 1.23027
          1.23027 1.23027 1.23027 1.23027 1.23027 1.23026 1.23023 1.23028 1.23027 1.23022 1.23025 1.23026
          1.23026 1.23024 1.23025 1.23026 1.23026 1.23026 1.23026 1.23026 1.23025 1.23024 1.23026 1.23026
          1.23025 1.23022 1.23027 1.23026 1.23021 1.23023 1.23025 1.23025 1.23021 1.23022 1.23023 1.23024
          1.23024 1.23024 1.23023 1.23022 1.23021 1.23025 1.23025 1.23023 1.23021 1.23026 1.23025 1.2302
          1.23022 1.23024 1.23024 1.23017 1.23019 1.2302 1.23021 1.23021 1.23021 1.2302 1.23019 1.23017
          1.23024 1.23024 1.23022 1.2302 1.23025 1.23025 1.2302 1.23021 1.23022 1.23023 1.23011 1.23014
          1.23016 1.23017 1.23018 1.23017 1.23016 1.23014 1.23011 1.23023 1.23022 1.23021 1.2302 1.23025
          1.23024 1.23019 1.2302 1.23021 1.23022 1.23003 1.23008 1.23011 1.23013 1.23013 1.23013 1.23011
          1.23008 1.23003 1.23022 1.23021 1.2302 1.23019 1.23024 1.23023 1.23019 1.23019 1.2302 1.23021
          1.22994 1.23 1.23005 1.23007 1.23008 1.23007 1.23005 1.23 1.22994 1.23021 1.2302 1.23019
          1.23019 1.23023 1.23022 1.23018 1.23018 1.23019 1.23019 1.22983 1.22991 1.22997 1.23 1.23001
          1.23 1.22997 1.22991 1.22983 1.2302 1.23019 1.23018 1.23018 1.23022 1.23021 1.23018 1.23017
          1.23018 1.23018 1.2297 1.2298 1.22988 1.22992 1.22993 1.22992 1.22988 1.2298 1.22971 1.23018
          1.23018 1.23017 1.23018 1.23021 1.2302 1.23017 1.23016 1.23017 1.23017 1.22957 1.22969 1.22978
          1.22982 1.22984 1.22982 1.22978 1.22969 1.22957 1.23017 1.23017 1.23017 1.23017 1.2302 1.2302
          1.23017 1.23016 1.23016 1.23015 1.22943 1.22956 1.22967 1.22972 1.22974 1.22972 1.22967 1.22956
          1.22943 1.23016 1.23016 1.23016 1.23017 1.2302 1.23019 1.23016 1.23015 1.23015 1.23014 1.22935
          1.2295 1.22961 1.22967 1.22968 1.22967 1.22961 1.22949 1.22935 1.23014 1.23015 1.23015 1.23016
          1.23019
        </DataArray>
        <DataArray type="Float32" Name="mu" NumberOfComponents="1" format="ascii">
          1.75168e-05 1.75168e-05 1.75168e-05 1.75169e-05 1.75168e-05 1.75168e-05 1.75168e-05 1.75168e-05 1.75168e-05 1.75168e-05 1.75168e-05 1.75168e-05
          1.75168e-05 1.75168e-05 1.75168e-05 1.75168e-05 1.75168e-05 1.75168e-05 1.75168e-05 1.75168e-05 1.75168e-05 1.75168e-05 1.75168e-05 1.75168e-05
          1.75168e-05 1.75168e-05 1.75168e-05 1.75168e-05 1.75168e-05 1.75168e-05 1.75168e-05 1.75168e-05 1.75168e-05 1.75168e-05 1.75168e-05 1.75169e-05
          1.75168e-05 1.75168e-05 1.75168e-05 1.75169e-05 1.75168e-05 1.75168e-05 1.75168e-05 1.75168e-05 1.75168e-05 1.75168e-05 1.75168e-05 1.75168e-05
          1.75168e-05 1.75168e-05 1.75168e-05 1.75168e-05 1.75168e-05 1.75168e-05 1.75168e-05 1.75169e-05 1.75168e-05 1.75168e-05 1.7517e-05 1.75169e-05
          1.75168e-05 1.75168e-05 1.75168e-05 1.75168e-05 1.75168e-05 1.75168e-05 1.75168e-05 1.75168e-05 1.75168e-05 1.75168e-05 1.75168e-05 1.75168e-05
          1.75168e-05 1.75169e-05 1.7517e-05 1.75168e-05 1.75168e-05 1.75171e-05 1.75169e-05 1.75169e-05 1.75168e-05 1.75168e-05 1.75168e-05 1.75168e-05
          1.75168e-05 1.75168e-05 1.75168e-05 1.75168e-05 1.75168e-05 1.75168e-05 1.75168e-05 1.75169e-05 1.75169e-05 1.75171e-05 1.75168e-05 1.75168e-05
          1.75172e-05 1.75169e-05 1.75169e-05 1.75169e-05 1.75169e-05 1.75168e-05 1.75168e-05 1.75168e-05 1.75168e-05 1.75168e-05 1.75168e-05 1.75168e-05
          1.75169e-05 1.75169e-05 1.75169e-05 1.75169e-05 1.75172e-05 1.75168e-05 1.75168e-05 1.75173e-05 1.7517e-05 1.75169e-05 1.75169e-05 1.75169e-05
          1.75169e-05 1.75169e-05 1.75169e-05 1.75169e-05 1.75169e-05 1.75169e-05 1.75169e-05 1.75169e-05 1.75169e-05 1.75169e-05 1.7517e-05 1.75173e-05
          1.75168e-05 1.75168e-05 1.75173e-05 1.75171e-05 1.75169e-05 1.75169e-05 1.7517e-05 1.75169e-05 1.75169e-05 1.75169e-05 1.75169e-05 1.75169e-05
          1.75169e-05 1.75169e-05 1.7517e-05 1.75169e-05 1.75169e-05 1.75171e-05 1.75173e-05 1.75168e-05 1.75168e-05 1.75174e-05 1.75171e-05 1.7517e-05
          1.75169e-05 1.75171e-05 1.75171e-05 1.7517e-05 1.7517e-05 1.7517e-05 1.7517e-05 1.7517e-05 1.75171e-05 1.75171e-05 1.75169e-05 1.7517e-05
          1.75171e-05 1.75174e-05 1.75168e-05 1.75168e-05 1.75174e-05 1.75172e-05 1.7517e-05 1.75169e-05 1.75174e-05 1.75173e-05 1.75172e-05 1.75171e-05
          1.75171e-05 1.75171e-05 1.75172e-05 1.75173e-05 1.75174e-05 1.75169e-05 1.7517e-05 1.75172e-05 1.75174e-05 1.75168e-05 1.75168e-05 1.75174e-05
          1.75172e-05 1.75171e-05 1.7517e-05 1.75178e-05 1.75176e-05 1.75174e-05 1.75173e-05 1.75173e-05 1.75173e-05 1.75174e-05 1.75176e-05 1.75178e-05
          1.7517e-05 1.75171e-05 1.75172e-05 1.75174e-05 1.75168e-05 1.75168e-05 1.75174e-05 1.75172e-05 1.75171e-05 1.7517e-05 1.75184e-05 1.7518e-05
          1.75178e-05 1.75176e-05 1.75176e-05 1.75176e-05 1.75178e-05 1.7518e-05 1.75184e-05 1.7517e-05 1.75171e-05 1.75172e-05 1.75174e-05 1.75168e-05
          1.75168e-05 1.75174e-05 1.75173e-05 1.75171e-05 1.75171e-05 1.75192e-05 1.75187e-05 1.75183e-05 1.75181e-05 1.7518e-05 1.75181e-05 1.75183e-05
          1.75187e-05 1.75192e-05 1.7517e-05 1.75171e-05 1.75173e-05 1.75174e-05 1.75168e-05 1.75168e-05 1.75173e-05 1.75173e-05 1.75172e-05 1.75171e-05
          1.75201e-05 1.75194e-05 1.75189e-05 1.75186e-05 1.75186e-05 1.75186e-05 1.75189e-05 1.75194e-05 1.75201e-05 1.75171e-05 1.75172e-05 1.75173e-05
          1.75173e-05 1.75168e-05 1.75168e-05 1.75173e-05 1.75173e-05 1.75172e-05 1.75172e-05 1.75212e-05 1.75204e-05 1.75197e-05 1.75193e-05 1.75192e-05
          1.75193e-05 1.75197e-05 1.75204e-05 1.75212e-05 1.75171e-05 1.75172e-05 1.75173e-05 1.75173e-05 1.75168e-05 1.75168e-05 1.75172e-05 1.75173e-05
          1.75172e-05 1.75172e-05 1.75226e-05 1.75214e-05 1.75206e-05 1.75202e-05 1.752e-05 1.75202e-05 1.75206e-05 1.75215e-05 1.75225e-05 1.75172e-05
          1.75172e-05 1.75173e-05 1.75172e-05 1.75168e-05 1.75168e-05 1.75172e-05 1.75173e-05 1.75172e-05 1.75173e-05 1.7524e-05 1.75227e-05 1.75216e-05
          1.75211e-05 1.7521e-05 1.75211e-05 1.75217e-05 1.75227e-05 1.7524e-05 1.75172e-05 1.75172e-05 1.75173e-05 1.75172e-05 1.75168e-05 1.75168e-05
          1.75171e-05 1.75173e-05 1.75172e-05 1.75173e-05 1.75255e-05 1.75239e-05 1.75228e-05 1.75222e-05 1.7522e-05 1.75222e-05 1.75228e-05 1.75239e-05
          1.75255e-05 1.75173e-05 1.75172e-05 1.75173e-05 1.75171e-05 1.75168e-05 1.75168e-05 1.75172e-05 1.75173e-05 1.75173e-05 1.75174e-05 1.75263e-05
          1.75246e-05 1.75234e-05 1.75227e-05 1.75225e-05 1.75227e-05 1.75234e-05 1.75246e-05 1.75263e-05 1.75173e-05 1.75173e-05 1.75173e-05 1.75172e-05
          1.75168e-05
        </DataArray>
        <DataArray type="Float32" Name="h" NumberOfComponents="1" format="ascii">
          10292.9 10292.9 10292.9 10293.3 10292.9 10293 10292.9 10292.9 10292.9 10292.9 10292.9 10292.9
          10292.9 10292.9 10292.9 10292.9 10292.9 10292.9 10292.9 10292.9 10292.9 10292.9 10292.9 10292.9
          10292.9 10292.9 10292.9 10292.9 10292.9 10292.9 10292.9 10292.9 10292.9 10293 10292.9 10293.3
          10292.9 10292.9 10292.9 10294.4 10293.2 10293 10293 10292.9 10292.9 10292.9 10292.9 10292.9
          10292.9 10292.9 10292.9 10292.9 10293 10293 10293.2 10294.4 10292.9 10292.9 10296.1 10293.6
          10293.1 10293 10293 10293 10293 10292.9 10292.9 10292.9 10293 10293 10293 10293
          10293.1 10293.6 10296.1 10292.9 10292.9 10298.2 10294.2 10293.4 10293.1 10293 10293 10293
          10293 10293 10293 10293 10293 10293 10293.1 10293.4 10294.3 10298.1 10292.9 10292.9
          10300.2 10295.1 10293.8 10293.3 10293.3 10293.1 10293.1 10293.1 10293.1 10293.1 10293.1 10293.2
          10293.3 10293.3 10293.8 10295.2 10300.2 10292.9 10292.9 10301.9 10296.2 10294.3 10293.6 10294
          10293.6 10293.4 10293.4 10293.3 10293.4 10293.4 10293.6 10294 10293.6 10294.3 10296.3 10301.9
          10292.9 10292.9 10303.3 10297.4 10294.9 10294 10295.7 10294.8 10294.3 10294.1 10294 10294.1
          10294.3 10294.8 10295.7 10294 10294.9 10297.4 10303.2 10292.9 10292.9 10304.1 10298.6 10295.7
          10294.5 10299 10297.3 10296.2 10295.7 10295.5 10295.7 10296.2 10297.3 10299 10294.4 10295.7
          10298.6 10304.1 10292.9 10292.9 10304.5 10299.7 10296.5 10295.1 10304.6 10301.5 10299.4 10298.4
          10298.1 10298.4 10299.4 10301.5 10304.6 10295 10296.5 10299.7 10304.5 10292.9 10292.9 10304.5
          10300.7 10297.3 10295.9 10313 10308 10304.5 10302.8 10302.3 10302.8 10304.5 10308 10312.9
          10295.7 10297.3 10300.7 10304.5 10292.9 10292.9 10304.2 10301.4 10298.2 10296.7 10324.7 10317.2
          10311.8 10309.2 10308.4 10309.2 10311.9 10317.3 10324.5 10296.4 10298.2 10301.4 10304.1 10292.9
          10292.9 10303.6 10302 10298.9 10297.6 10339.9 10329.6 10321.8 10318 10316.9 10318 10321.8
          10329.6 10339.6 10297.1 10298.9 10302 10303.6 10292.9 10292.9 10302.9 10302.3 10299.6 10298.5
          10358.9 10345.2 10334.6 10329.3 10327.8 10329.4 10334.7 10345.2 10358.5 10298 10299.6 10302.3
          10302.9 10292.9 10292.9 10302 10302.5 10300.1 10299.5 10381.8 10364 10350.4 10343.4 10341.4
          10343.4 10350.4 10364.1 10381.3 10298.8 10300.1 10302.4 10302 10292.9 10292.9 10301.1 10302.4
          10300.6 10300.6 10408.2 10385.8 10368.9 10360.1 10357.5 10360.2 10368.9 10385.9 10407.6 10299.8
          10300.6 10302.4 10301.1 10292.9 10292.9 10300.1 10302.2 10300.9 10301.8 10437.2 10410.1 10389.8
          10379.2 10376 10379.2 10389.9 10410.2 10436.5 10300.9 10300.8 10302.2 10300.1 10292.9 10292.9
          10299.1 10301.8 10301.1 10303.2 10467.7 10436.1 10412.6 10400.2 10396.5 10400.2 10412.7 10436.2
          10466.9 10302.2 10301 10301.8 10299.1 10292.9 10292.9 10299.8 10302.3 10301.7 10304.2 10483.9
          10450 10424.7 10411.2 10407.2 10411.3 10424.7 10450 10483.2 10303.3 10301.6 10302.3 10299.8
          10292.9
        </DataArray>
        <DataArray type="Float32" Name="v" NumberOfComponents="3" format="ascii">
          0 0 0 0 0.104938 0 0 0 0 -0.000274704 0.104727 0
          0 0.197531 0 0.000638223 0.1972 0 0 0.277778 0 0.000610882 0.277569 0
          0 0.345679 0 0.00128751 0.345514 0 0 0.401235 0 0.00103287 0.401369 0
          0 0.444444 0 0.00117736 0.444582 0 0 0.475309 0 0.000710527 0.475634 0
          0 0.493827 0 0.000450079 0.494077 0 0 0.5 0 -3.0598e-06 0.500372 0
          0 0.493827 0 -0.000456182 0.494077 0 0 0.475309 0 -0.000716282 0.475634 0
          0 0.444444 0 -0.00118262 0.444581 0 0 0.401235 0 -0.00103712 0.401368 0
          0 0.345679 0 -0.00129055 0.345513 0 0 0.277778 0 -0.000612717 0.277568 0
          0 0.197531 0 -0.000640062 0.1972 0 0 0.104938 0 0.000273376 0.104726 0
          0 0 0 0 0 0 0 0 0 -0.000260353 0.104301 0
          0.000872141 0.196665 0 0.000840098 0.277215 0 0.00168991 0.345237 0 0.00136244 0.401431 0
          0.00139492 0.444705 0 0.000843574 0.476051 0 0.000505001 0.494419 0 -3.21805e-06 0.500887 0
          -0.000511443 0.494419 0 -0.000849799 0.47605 0 -0.00140067 0.444703 0 -0.00136715 0.401429 0
          -0.00169272 0.345235 0 -0.000841554 0.277214 0 -0.000873452 0.196665 0 0.000259669 0.104299 0
          0 0 0 0 0 0 -0.000270589 0.103749 0 0.00119641 0.196009 0
          0.0011781 0.276772 0 0.00228103 0.344873 0 0.00186439 0.401804 0 0.00175737 0.445057 0
          0.00106044 0.476635 0 0.000593927 0.494877 0 -3.3474e-06 0.501481 0 -0.000600765 0.494877 0
          -0.00106724 0.476635 0 -0.00176425 0.445055 0 -0.00187042 0.4018 0 -0.00228294 0.344868 0
          -0.00117831 0.27677 0 -0.00119705 0.196009 0 0.000270688 0.103746 0 0 0 0
          0 0 0 -0.000328581 0.102934 0 0.0017075 0.195119 0 0.0016648 0.276097 0
          0.00360828 0.344297 0 0.00297466 0.402277 0 0.00212919 0.445528 0 0.00131834 0.477311 0
          0.000648569 0.495434 0 -3.48868e-06 0.502139 0 -0.000655926 0.495434 0 -0.00132589 0.477311 0
          -0.00213797 0.445527 0 -0.00298293 0.402269 0 -0.00360861 0.344288 0 -0.00166287 0.276095 0
          -0.00170725 0.195119 0 0.000329747 0.102931 0 0 0 0 0 0 0
          -0.000408179 0.101804 0 0.00226032 0.19399 0 0.00219446 0.27484 0 0.00521433 0.343071 0
          0.00439999 0.403835 0 0.00260898 0.446723 0 0.00166494 0.478135 0 0.000728772 0.496194 0
          -3.61286e-06 0.502799 0 -0.000736499 0.496194 0 -0.00167306 0.478135 0 -0.00261884 0.446723 0
          -0.0044094 0.403821 0 -0.00521373 0.343054 0 -0.00219128 0.274839 0 -0.00225937 0.193991 0
          0.000410083 0.101801 0 0 0 0 0 0 0 -0.000428485 0.100365 0
          0.0026825 0.192591 0 0.00265206 0.273161 0 0.00616113 0.341362 0 0.00529497 0.405672 0
          0.00318428 0.448227 0 0.00203383 0.479097 0 0.000881456 0.497138 0 -3.72129e-06 0.503558 0
          -0.000889397 0.497138 0 -0.00204231 0.479098 0 -0.00319443 0.448229 0 -0.00530447 0.405652 0
          -0.00616023 0.341338 0 -0.00264844 0.273162 0 -0.00268102 0.192592 0 0.000430843 0.100363 0
          0 0 0 0 0 0 -0.000426094 0.0987492 0 0.00296755 0.191005 0
          0.00297411 0.271341 0 0.00670236 0.339516 0 0.00578696 0.407822 0 0.00355539 0.45001 0
          0.00226417 0.480296 0 0.000984987 0.498259 0 -3.7022e-06 0.504464 0 -0.000992873 0.49826 0
          -0.00227266 0.480299 0 -0.00356546 0.450013 0 -0.00579621 0.407796 0 -0.00670127 0.339484 0
          -0.00297031 0.271342 0 -0.00296578 0.191007 0 0.000428635 0.0987484 0 0 0 0
          0 0 0 -0.000399616 0.0969849 0 0.00311617 0.189278 0 0.00315895 0.269399 0
          0.00694933 0.33756 0 0.00603668 0.409887 0 0.00379588 0.451796 0 0.00241721 0.481536 0
          0.00106567 0.499439 0 -3.58087e-06 0.505429 0 -0.00107328 0.499441 0 -0.00242541 0.48154 0
          -0.00380552 0.4518 0 -0.00604536 0.409854 0 -0.00694818 0.33752 0 -0.00315522 0.2694 0
          -0.00311428 0.18928 0 0.000402138 0.0969852 0 0 0 0 0 0 0
          -0.000366779 0.0951978 0 0.00313657 0.187523 0 0.00320743 0.267481 0 0.00695488 0.335636 0
          0.00606678 0.412058 0 0.00385166 0.453686 0 0.00245506 0.482903 0 0.00108884 0.500704 0
          -3.31282e-06 0.50649 0 -0.0010959 0.500706 0 -0.00246267 0.482908 0 -0.00386063 0.453692 0
          -0.00607474 0.41202 0 -0.00695368 0.33559 0 -0.00320387 0.267483 0 -0.00313471 0.187525 0
          0.000369121 0.0951993 0 0 0 0 0 0 0 -0.000329567 0.0934065 0
          0.00304904 0.185774 0 0.00314078 0.265549 0 0.00678828 0.333706 0 0.00594766 0.414058 0
          0.00375524 0.455473 0 0.00240475 0.484184 0 0.0010634 0.501923 0 -2.942e-06 0.507507 0
          -0.0010697 0.501926 0 -0.00241148 0.48419 0 -0.0037632 0.45548 0 -0.00595461 0.414014 0
          -0.00678717 0.333652 0 -0.00313766 0.265552 0 -0.00304739 0.185777 0 0.000331549 0.0934091 0
          0 0 0 0 0 0 -0.000273927 0.0917231 0 0.00281722 0.184132 0
          0.00292759 0.26372 0 0.00631327 0.331871 0 0.00556337 0.416111 0 0.00350622 0.457285 0
          0.00226144 0.485475 0 0.0010037 0.50314 0 -2.45895e-06 0.50852 0 -0.00100899 0.503144 0
          -0.00226695 0.485482 0 -0.00351282 0.457293 0 -0.00556906 0.416063 0 -0.00631239 0.331812 0
          -0.00292514 0.263724 0 -0.00281596 0.184136 0 0.000275377 0.0917267 0 0 0 0
          0 0 0 -0.000204381 0.0901914 0 0.00246371 0.182658 0 0.0025758 0.262019 0
          0.00561063 0.330171 0 0.00495894 0.417829 0 0.00306847 0.45884 0 0.00200891 0.486563 0