<?xml version="1.0"?>
<VTKFile type="UnstructuredGrid" version="0.1" byte_order="LittleEndian">
  <UnstructuredGrid>
    <Piece NumberOfCells="1024" NumberOfPoints="1089">
      <PointData Scalars="P" Vectors="v">
        <DataArray type="Float32" Name="P" NumberOfComponents="1" format="ascii">
          99999.9 99999.9 99999.9 99999.9 99999.9 99999.9 99999.9 99999.9 99999.9 99999.9 99999.9 99999.9
          99999.9 99999.9 99999.9 99999.9 99999.9 99999.9 99999.9 99999.9 100000 100000 99999.9 99999.9
          100000 100000 99999.8 99999.8 100000 100000 99999.7 99999.8 100000 100000 100000 99999.9
          100000 100000 100000 100000 100000 100000 100000 100000 100000 100000 100000 100000
          100000 100000 100000 100000 100000 100000 100000 100000 100000 100000 100000 100000
          100000 100000 100000 100000 100000 100000 99999.9 99999.9 99999.9 99999.9 99999.9 99999.9
          99999.9 99999.9 99999.9 99999.9 100000 99999.9 100000 99999.9 100000 99999.9 100000 99999.9
          100000 100000 100000 100000 100000 100000 100000 100000 100000 100000 100000 100000
          100000 100000 100000 99999.9 99999.9 99999.9 99999.9 99999.9 99999.9 99999.9 99999.9 99999.9
          99999.9 99999.9 99999.9 100000 99999.9 100000 99999.9 100000 99999.9 100000 99999.9 100000
          100000 100000 100000 100000 100000 100000 100000 100000 100000 100000 100000 100000
          99999.9 99999.9 99999.9 99999.9 99999.9 99999.9 99999.9 99999.9 99999.9 99999.9 99999.9 99999.9
          99999.9 99999.9 100000 99999.9 100000 99999.9 100000 99999.9 100000 100000 100000 100000
          100000 100000 100000 100000 100000 100000 100000 100000 100000 99999.9 99999.9 99999.9
          99999.9 99999.9 99999.9 99999.9 99999.9 99999.9 99999.9 99999.9 99999.9 99999.9 99999.9 100000
          99999.9 100000 99999.9 100000 99999.9 100000 100000 100000 100000 100000 100000 100000
          100000 100000 100000 100000 100000 100000 99999.9 99999.9 99999.9 99999.9 99999.9 99999.9
          99999.9 99999.9 99999.9 99999.9 99999.9 99999.9 99999.9 99999.9 100000 99999.9 100000 99999.9
          100000 99999.9 100000 100000 100000 100000 100000 100000 100000 100000 100000 100000
          100000 100000 100000 99999.9 99999.9 99999.9 99999.9 99999.9 99999.9 99999.9 99999.9 99999.9
          99999.9 99999.9 99999.9 99999.9 99999.9 99999.9 99999.9 100000 99999.9 100000 99999.9 100000
          100000 100000 100000 100000 100000 100000 100000 100000 100000 100000 100000 100000
          99999.9 99999.9 99999.9 99999.9 99999.9 99999.9 99999.9 99999.9 99999.9 99999.9 99999.9 99999.9
          99999.9 99999.9 99999.9 99999.9 100000 99999.9 100000 99999.9 100000 100000 100000 100000
          100000 100000 100000 100000 100000 100000 100000 100000 100000 99999.9 99999.9 99999.9
          99999.9 99999.9 99999.9 99999.9 99999.9 99999.9 99999.9 99999.9 99999.9 99999.9 99999.9 99999.9
          99999.9 100000 99999.9 100000 99999.9 100000 100000 100000 100000 100000 100000 100000
          100000 100000 100000 100000 100000 100000 99999.9 99999.9 99999.9 99999.9 99999.9 99999.9
          99999.9 99999.9 99999.9 99999.9 99999.9 99999.9 99999.9 99999.9 99999.9 99999.9 99999.9 99999.9
          100000 99999.9 100000 99999.9 100000 100000 100000 100000 100000 100000 100000 100000
          100000 100000 100000 99999.9 99999.9 99999.9 99999.9 99999.9 99999.9 99999.9 99999.9 99999.9
          99999.9 99999.9 99999.9 99999.9 99999.9 99999.9 99999.9 99999.9 99999.9 100000 99999.9 100000
          99999.9 100000 100000 100000 100000 100000 100000 100000 100000 100000 100000 100000
          99999.9 99999.9 99999.9 99999.9 99999.9 99999.9 99999.9 99999.9 99999.9 99999.9 99999.9 99999.9
          99999.9 99999.9 99999.9 99999.9 99999.9 99999.9 100000 99999.9 100000 99999.9 100000 100000
          100000 100000 100000 100000 100000 100000 100000 100000 100000 99999.9 99999.9 99999.9
          99999.9 99999.9 99999.9 99999.9 99999.9 99999.9 99999.9 99999.9 99999.9 99999.9 99999.9 99999.9
          99999.9 99999.9 99999.9 99999.9 99999.9 100000 99999.9 100000 100000 100000 100000 100000
          100000 100000 100000 100000 100000 100000 99999.9 99999.9 99999.9 99999.9 99999.9 99999.9
          99999.9 99999.9 99999.9 99999.9 99999.9 99999.9 99999.9 99999.9 99999.9 99999.9 99999.9 99999.9
          99999.9 99999.9 100000 99999.9 100000 100000 100000 100000 100000 100000 100000 100000
          100000 100000 100000 99999.9 99999.9 99999.9 99999.9 99999.9 99999.9 99999.9 99999.9 99999.9
          99999.9 99999.9 99999.9 99999.9 99999.9 99999.9 99999.9 99999.9 99999.9 99999.9 99999.9 99999.9
          99999.9 100000 99999.9 100000 100000 100000 100000 100000 100000 100000 100000 100000
          99999.9 99999.9 99999.9 99999.9 99999.9 99999.9 99999.9 99999.9 99999.9 99999.9 99999.9 99999.9
          99999.9 99999.9 99999.9 99999.9 99999.9 99999.9 99999.9 99999.9 99999.9 99999.9 100000 99999.9
          100000 100000 100000 100000 100000 100000 100000 100000 100000 99999.9 99999.9 99999.9
          99999.9 99999.9 99999.9 99999.9 99999.9 99999.9 99999.9 99999.9 99999.9 99999.9 99999.9 99999.9
          99999.9 99999.9 99999.9 99999.9 99999.9 99999.9 99999.9 99999.9 99999.9 100000 99999.9 100000
          100000 100000 100000 100000 100000 100000 99999.9 99999.9 99999.9 99999.9 99999.9 99999.9
          99999.9 99999.9 99999.9 99999.9 99999.9 99999.9 99999.9 99999.9 99999.9 99999.9 99999.9 99999.9
          99999.9 99999.9 99999.9 99999.9 99999.9 99999.9 100000 99999.9 100000 100000 100000 100000
          100000 100000 100000 99999.9 99999.9 99999.9 99999.9 99999.9 99999.9 99999.9 99999.9 99999.9
          99999.9 99999.9 99999.9 99999.9 99999.9 99999.9 99999.9 99999.9 99999.9 99999.9 99999.9 99999.9
          99999.9 99999.9 99999.9 99999.9 99999.9 100000 99999.9 100000 100000 100000 100000 100000
          99999.9 99999.9 99999.9 99999.9 99999.9 99999.9 99999.9 99999.9 99999.9 99999.9 99999.9 99999.9
          99999.9 99999.9 99999.9 99999.9 99999.9 99999.9 99999.9 99999.9 99999.9 99999.9 99999.9 99999.9
          99999.9 99999.9 99999.9 99999.9 99999.9 99999.9 100000 99999.9 99999.9 99999.9 99999.9 99999.9
          99999.9 99999.9 99999.9 99999.9 99999.9 99999.9 99999.9 99999.9 99999.9 99999.9 99999.9 99999.9
          99999.9 99999.9 99999.9 99999.9 99999.9 99999.9 99999.9 99999.9 99999.9 99999.9 99999.9 99999.9
          99999.9 99999.9 99999.9 99999.9 99999.9 99999.9 99999.9 99999.9 99999.9 99999.9 99999.9 99999.9
          99999.9 99999.9 99999.9 99999.9 99999.9 99999.9 99999.9 99999.9 99999.9 99999.9 99999.9 99999.9
          99999.9 99999.9 99999.9 99999.9 99999.9 99999.9 99999.9 99999.9 99999.9 99999.9 99999.9 99999.9
          99999.9 99999.9 99999.9 99999.9 99999.9 99999.9 99999.9 99999.9 99999.9 99999.9 99999.9 99999.9
          99999.9 99999.9 99999.9 99999.9 99999.9 99999.9 99999.9 99999.9 99999.9 99999.9 99999.9 99999.9
          99999.9 99999.9 99999.9 99999.9 99999.9 99999.9 99999.9 99999.9 99999.9 99999.9 99999.9 99999.9
          99999.9 99999.9 99999.9 99999.9 99999.9 99999.9 99999.9 99999.9 99999.9 99999.9 99999.9 99999.9
          99999.9 99999.9 99999.9 99999.9 99999.9 99999.9 99999.9 99999.9 99999.9 99999.9 99999.9 99999.9
          99999.9 99999.9 99999.9 99999.9 99999.9 99999.9 99999.9 99999.9 99999.9 99999.9 99999.9 99999.9
          99999.9 99999.9 99999.9 99999.9 99999.9 99999.9 99999.9 99999.9 99999.9 99999.9 99999.9 99999.9
          99999.9 99999.9 99999.9 99999.9 99999.9 99999.9 99999.9 99999.9 99999.9 99999.9 99999.9 99999.9
          99999.9 99999.9 99999.9 99999.9 99999.9 99999.9 99999.9 99999.9 99999.9 99999.9 99999.9 99999.9
          99999.9 99999.9 99999.9 99999.9 99999.9 99999.9 99999.9 99999.9 99999.9 99999.9 99999.9 99999.9
          99999.9 99999.9 99999.9 99999.9 99999.9 99999.9 99999.9 99999.9 99999.9 99999.9 99999.9 99999.9
          99999.9 99999.9 99999.9 99999.9 99999.9 99999.9 99999.9 99999.9 99999.9 99999.9 99999.9 99999.9
          99999.9 99999.9 99999.9 99999.9 99999.9 99999.9 99999.9 99999.9 99999.9 99999.9 99999.9 99999.9
          99999.9 99999.9 99999.9 99999.9 99999.9 99999.9 99999.9 99999.9 99999.9 99999.9 99999.9 99999.9
          99999.9 99999.9 99999.9 99999.9 99999.9 99999.9 99999.9 99999.9 99999.9 99999.9 99999.9 99999.9
          99999.9 99999.9 99999.9 99999.9 99999.9 99999.9 99999.9 99999.9 99999.9 99999.9 99999.9 99999.9
          99999.9 99999.9 99999.9 99999.9 99999.9 99999.9 99999.9 99999.9 99999.9 99999.9 99999.9 99999.9
          99999.9 99999.9 99999.9 99999.9 99999.9 99999.9 99999.9 99999.9 99999.9 99999.9 99999.9 99999.9
          99999.9 99999.9 99999.9 99999.9 99999.9 99999.9 99999.9 99999.9 99999.9 99999.9 99999.9 99999.9
          99999.9 99999.9 99999.9 99999.9 99999.9 99999.9 99999.9 99999.9 99999.9 99999.9 99999.9 99999.9
          99999.9 99999.9 99999.9 99999.9 99999.9 99999.9 99999.9 99999.9 99999.9 99999.9 99999.9 99999.9
          99999.9 99999.9 99999.9 99999.9 99999.9 99999.9 99999.9 99999.9 99999.9 99999.9 99999.9 99999.9
          99999.9 99999.9 99999.9 99999.9 99999.9 99999.9 99999.9 99999.9 99999.9 99999.9 99999.9 99999.9
          99999.9 99999.9 99999.9 99999.9 99999.9 99999.9 99999.9 99999.9 99999.9 99999.9 99999.9 99999.9
          99999.9 99999.9 99999.9 99999.9 99999.9 99999.9 99999.9 99999.9 99999.9 99999.9 99999.9 99999.9
          99999.9 99999.9 99999.9 99999.9 99999.9 99999.9 99999.9 99999.9 99999.9 99999.9 99999.9 99999.9
          99999.9 99999.9 99999.9 99999.9 99999.9 99999.9 99999.9 99999.9 99999.9 99999.9 99999.9 99999.9
          99999.9 99999.9 99999.9 99999.9 99999.9 99999.9 99999.9 99999.9 99999.9
        </DataArray>
        <DataArray type="Float32" Name="delP" NumberOfComponents="1" format="ascii">
          -0.147064 -0.148402 -0.130744 -0.132082 -0.104562 -0.109494 -0.128311 -0.126284 -0.0883067 -0.0893339 -0.124056 -0.123833
          -0.0728151 -0.0732097 -0.125547 -0.125574 -0.0574449 -0.0580665 -0.132155 -0.131643 -0.0405131 -0.0428415 -0.147292 -0.143083
          -0.0170624 -0.028813 -0.18594 -0.160051 0.0333615 -0.0290375 -0.33663 -0.157194 0 -0.0158928 0 -0.080995
          0 0.00641364 0 -0.0338328 0 0.00317774 0 -0.0183218 0 0.000249388 0 -0.0116911
          0 -0.00138696 0 -0.0083799 0 -0.00238114 0 -0.00656228 0 -0.00315177 0 -0.0055364
          0 -0.00394739 0 -0.00503621 0 -0.00499625 -0.125221 -0.126064 -0.105961 -0.121194 -0.0897093 -0.119219
          -0.0753637 -0.119838 -0.0622902 -0.12288 -0.0501808 -0.128379 -0.0392425 -0.136319 -0.0291298 -0.146665 -0.0223051 -0.0691535
          -0.00748302 -0.0413267 -0.00396824 -0.0272831 -0.00393036 -0.0195946 -0.00467634 -0.01507 -0.00559229 -0.0123034 -0.00663475 -0.0106403
          -0.00793209 -0.00981038 -0.00974242 -0.117426 -0.118 -0.104578 -0.116992 -0.0901758 -0.115714 -0.077171 -0.115679 -0.0656912
          -0.11675 -0.0559455 -0.117986 -0.0487927 -0.116214 -0.0443125 -0.0988109 -0.0304876 -0.0801961 -0.0152315 -0.0530619 -0.00890089
          -0.0369591 -0.0075799 -0.0274387 -0.00792287 -0.0215701 -0.00885527 -0.0178745 -0.0101508 -0.0156157 -0.0118967 -0.014484 -0.0143914
          -0.113202 -0.113651 -0.101309 -0.111946 -0.089506 -0.110446 -0.0784694 -0.109524 -0.0684873 -0.109035 -0.0596206 -0.108377
          -0.0516574 -0.106203 -0.0436073 -0.100282 -0.0341997 -0.0712428 -0.0227283 -0.0526713 -0.0163331 -0.0399892 -0.0134726 -0.0315459
          -0.0126503 -0.025903 -0.012959 -0.0221507 -0.014025 -0.0197841 -0.0158021 -0.0185895 -0.0184847 -0.107782 -0.108108 -0.0990019
          -0.107624 -0.0891655 -0.10632 -0.0796232 -0.10487 -0.0709817 -0.103143 -0.0634474 -0.100316 -0.0568323 -0.094496 -0.0497002
          -0.082312 -0.039489 -0.0719336 -0.0293072 -0.0568586 -0.0219257 -0.0448814 -0.0181809 -0.0363738 -0.0167705 -0.0304715 -0.0167673
          -0.026459 -0.0177421 -0.0239019 -0.0196013 -0.0226131 -0.0225009 -0.104027 -0.104289 -0.0961815 -0.103259 -0.0878424 -0.1017
          -0.0796288 -0.099864 -0.0718615 -0.0976624 -0.0645858 -0.0946624 -0.0575365 -0.090076 -0.0502363 -0.082824 -0.0420128 -0.06781
          -0.0333442 -0.0555523 -0.027165 -0.0458578 -0.0233218 -0.0385718 -0.021401 -0.0332803 -0.0209152 -0.0295743 -0.0215444 -0.0271793
          -0.0231723 -0.0259747 -0.0258644 -0.0997753 -0.099969 -0.0937785 -0.0993909 -0.0869501 -0.0979085 -0.0799409 -0.0957927 -0.0731885
          -0.0929711 -0.0667964 -0.0889955 -0.0604863 -0.0830619 -0.053515 -0.0745723 -0.045708 -0.0668184 -0.0382115 -0.0572332 -0.0318468
          -0.048572 -0.0276433 -0.0417024 -0.0253811 -0.0365619 -0.0246274 -0.0329018 -0.0250767 -0.0305225 -0.0265994 -0.0293312 -0.029224
          -0.0964858 -0.0966414 -0.0912308 -0.0957812 -0.0852915 -0.0941751 -0.0791133 -0.0919879 -0.0729338 -0.08919 -0.0668089 -0.0855694
          -0.0606367 -0.0807839 -0.0542835 -0.0743654 -0.047471 -0.0649364 -0.0407022 -0.0563185 -0.035362 -0.0489811 -0.0315585 -0.0430638
          -0.0292517 -0.0385299 -0.0282713 -0.0352505 -0.0284453 -0.033108 -0.0296737 -0.0320414 -0.0319428 -0.0930321 -0.0931473 -0.0889633
          -0.092487 -0.0841206 -0.0909466 -0.0788652 -0.0886554 -0.0734726 -0.0855995 -0.0680213 -0.0815959 -0.0623831 -0.0763882 -0.0563342
          -0.0700553 -0.0501354 -0.063912 -0.0442694 -0.057111 -0.0390545 -0.0506789 -0.0351589 -0.045253 -0.0327007 -0.0409947 -0.0315536
          -0.0378746 -0.0315641 -0.0358278 -0.0326319 -0.0348137 -0.0347225 -0.0902322 -0.0903247 -0.0866726 -0.0895505 -0.0823803 -0.0879986
          -0.0776642 -0.0857923 -0.0727071 -0.0829489 -0.0675922 -0.0794006 -0.0623363 -0.0750327 -0.0569472 -0.0696706 -0.0513552 -0.0630164
          -0.0459456 -0.0566336 -0.0414493 -0.0509819 -0.0380221 -0.046241 -0.0357231 -0.042486 -0.0345267 -0.039714 -0.0343656 -0.0378932
          -0.0351758 -0.0369961 -0.0369149 -0.0874049 -0.0874728 -0.0846386 -0.086806 -0.0811363 -0.085327 -0.0771241 -0.0831205 -0.0727866
          -0.0802142 -0.0682083 -0.076572 -0.0633848 -0.0721708 -0.0583269 -0.0672074 -0.0533052 -0.0622569 -0.0485749 -0.0570968 -0.0443137
          -0.0521667 -0.0409215 -0.0478738 -0.038577 -0.0444069 -0.0372901 -0.0418208 -0.0370061 -0.0401165 -0.0376626 -0.0392803 -0.0392073
          -0.0850722 -0.0851268 -0.0826292 -0.0844338 -0.0794798 -0.0830084 -0.0758391 -0.0809506 -0.0718565 -0.0783071 -0.0676305 -0.0750862
          -0.0632318 -0.0712786 -0.0587213 -0.0668518 -0.0541315 -0.0618226 -0.0497433 -0.0569149 -0.0459806 -0.0524758 -0.0429958 -0.0486705
          -0.040868 -0.0455966 -0.039625 -0.0432976 -0.0392536 -0.0417823 -0.0397191 -0.0410414 -0.0409775 -0.0827596 -0.0827989 -0.0808634
          -0.082175 -0.0782868 -0.0808264 -0.0751837 -0.0788227 -0.0716895 -0.0762152 -0.0678951 -0.0730379 -0.0638608 -0.0693551 -0.0596809
          -0.0653517 -0.0555703 -0.06132 -0.0516968 -0.0572505 -0.0481906 -0.0533717 -0.0452983 -0.0499439 -0.0431806 -0.0471297 -0.0418953
          -0.0450072 -0.0414388 -0.0436043 -0.0417782 -0.0429212 -0.0428646 -0.0808454 -0.0808772 -0.0791454 -0.0802673 -0.0768013 -0.0790009
          -0.0739664 -0.0771616 -0.0707643 -0.0748087 -0.0672947 -0.0719859 -0.0636446 -0.0687298 -0.0598928 -0.0650739 -0.0561149 -0.0611166
          -0.0525175 -0.0572403 -0.0493685 -0.0536937 -0.0468017 -0.050617 -0.0448956 -0.0481027 -0.0436935 -0.0462066 -0.0432064 -0.0449533
          -0.0434186 -0.044344 -0.0442948 -0.0789617 -0.0789839 -0.0776473 -0.0784248 -0.0757224 -0.0772335 -0.073298 -0.0754717 -0.0704799
          -0.0731998 -0.0673579 -0.0704802 -0.064017 -0.0674027 -0.0605701 -0.0641187 -0.0571819 -0.0608052 -0.0539798 -0.0575189 -0.0510707
          -0.0544045 -0.0486176 -0.0516357 -0.0467496 -0.0493419 -0.0455345 -0.0475998 -0.0449917 -0.046446 -0.0451075 -0.0458871 -0.045844
          -0.0774098 -0.0774277 -0.0762106 -0.0768984 -0.0744421 -0.0757958 -0.0722166 -0.0741901 -0.0696357 -0.0721428 -0.0667913 -0.0697102
          -0.0637698 -0.0669475 -0.060653 -0.0639149 -0.0575288 -0.0607217 -0.0545535 -0.0575975 -0.0519095 -0.0547217 -0.0497099 -0.0522097
          -0.0480266 -0.050143 -0.0469052 -0.0485758 -0.0463658 -0.0475375 -0.0464048 -0.0470346 -0.0469971 -0.0758855 -0.0758973 -0.0749625
          -0.075408 -0.0735032 -0.0743746 -0.0715908 -0.072852 -0.0693107 -0.070901 -0.0667458 -0.0685909 -0.0639843 -0.0660127 -0.0611338
          -0.0632875 -0.0583224 -0.0605394 -0.0556539 -0.0578413 -0.0532194 -0.0552984 -0.0511352 -0.0530337 -0.0495024 -0.0511485 -0.0483852
          -0.0497102 -0.0478114 -0.0487558 -0.0477793 -0.0482954 -0.0482627 -0.0746417 -0.0746513 -0.0737842 -0.0741952 -0.0724315 -0.0732452
          -0.0706682 -0.07186 -0.0685771 -0.0700972 -0.0662385 -0.0680151 -0.0637316 -0.0656739 -0.0611346 -0.0631415 -0.0585337 -0.060518
          -0.0560507 -0.0579576 -0.053818 -0.0555929 -0.0519298 -0.0535188 -0.0504504 -0.0518049 -0.049423 -0.0505002 -0.048871 -0.0496341
          -0.0487978 -0.0492158 -0.0491872 -0.0734194 -0.073425 -0.0727615 -0.0730015 -0.0716379 -0.0721126 -0.070113 -0.0708063 -0.0682561
          -0.0691389 -0.0661409 -0.0671777 -0.0638494 -0.0650054 -0.0614764 -0.0627205 -0.0591244 -0.0604184 -0.0568805 -0.0581715 -0.0548237
          -0.056063 -0.0530423 -0.0541853 -0.0516165 -0.0526179 -0.0506026 -0.0514185 -0.0500308 -0.0506212 -0.0499064 -0.0502376 -0.0502127
          -0.0724361 -0.0724404 -0.0718137 -0.072048 -0.0707634 -0.0712318 -0.06935 -0.0700404 -0.0676406 -0.0685257 -0.0657037 -0.0667427
          -0.0636099 -0.0647507 -0.0614307 -0.0626165 -0.0592451 -0.0604273 -0.057151 -0.0582953 -0.0552494 -0.0563225 -0.0536191 -0.0545873
          -0.0523169 -0.0531489 -0.0513828 -0.0520507 -0.0508407 -0.0513202 -0.0506982 -0.0509682 -0.0509463 -0.0714688 -0.0714706 -0.0709909
          -0.0711047 -0.0701103 -0.0703404 -0.0688774 -0.0692187 -0.0673488 -0.0677902 -0.0655886 -0.066116 -0.0636695 -0.0642689 -0.061673
          -0.0623301 -0.0596833 -0.060378 -0.0577751 -0.058479 -0.0560168 -0.0567025 -0.0544796 -0.0551212 -0.0532284 -0.0537992 -0.052312
          -0.0527851 -0.0517595 -0.0521097 -0.0515807 -0.0517855 -0.0517664 -0.0707056 -0.0707069 -0.0702459 -0.0703674 -0.0694156 -0.0696631
          -0.0682652 -0.0686339 -0.0668489 -0.0673253 -0.0652253 -0.065788 -0.0634562 -0.0640775 -0.0616062 -0.0622561 -0.059746 -0.0603991
          -0.0579558 -0.0585935 -0.0563166 -0.0569204 -0.0548948 -0.0554454 -0.0537409 -0.0542197 -0.0528915 -0.0532815 -0.0523701 -0.0526561
          -0.0521869 -0.0523554 -0.0523383 -0.0699556 -0.0699552 -0.0695999 -0.0696371 -0.0688943 -0.0689752 -0.0678787 -0.0680042 -0.0665999
          -0.0667687 -0.0651132 -0.065323 -0.0634822 -0.0637307 -0.0617767 -0.0620604 -0.0600677 -0.0603787 -0.0584201 -0.0587456 -0.0568942
          -0.057221 -0.0555498 -0.0558645 -0.0544407 -0.0547293 -0.0536095 -0.0538567 -0.0530836 -0.0532744 -0.052875 -0.0529952 -0.0529801
          -0.0693801 -0.0693795 -0.0690327 -0.0690825 -0.0683613 -0.0684676 -0.0674053 -0.0675678 -0.0662093 -0.0664231 -0.0648238 -0.0650797
          -0.0633033 -0.0635889 -0.0617061 -0.0620079 -0.0600948 -0.0604019 -0.0585375 -0.0588418 -0.057101 -0.0573945 -0.0558428 -0.0561161
          -0.054808 -0.0550514 -0.0540304 -0.0542345 -0.0535328 -0.0536887 -0.0533268 -0.0534266 -0.053413 -0.0688177 -0.068816 -0.0685438
          -0.0685357 -0.0679621 -0.0679538 -0.0671043 -0.0670999 -0.0660097 -0.0660133 -0.0647269 -0.0647425 -0.0633113 -0.0633432 -0.0618238
          -0.0618751 -0.0603255 -0.0603964 -0.0588743 -0.0589615 -0.057524 -0.0576234 -0.0563266 -0.0564333 -0.0553286 -0.0554366 -0.0545673
          -0.0546692 -0.0540684 -0.0541559 -0.0538449 -0.0539098 -0.0538977 -0.0684046 -0.0684029 -0.068134 -0.0681384 -0.0675747 -0.067591
          -0.0667579 -0.0667886 -0.0657215 -0.0657671 -0.0645097 -0.0645691 -0.0631719 -0.0632421 -0.0617608 -0.0618385 -0.0603327 -0.060416
          -0.0589469 -0.0590348 -0.0576608 -0.0577521 -0.056525 -0.056617 -0.0555808 -0.0556698 -0.0548597 -0.0549415 -0.0543838 -0.054454
          -0.0541657 -0.0542196 -0.0542085 -0.0680074 -0.068005 -0.0677868 -0.0677529 -0.067289 -0.0672294 -0.0665399 -0.0664603 -0.0655742
          -0.0654814 -0.0644349 -0.0643363 -0.0631718 -0.0630752 -0.0618386 -0.061751 -0.0604901 -0.0604164 -0.0591787 -0.0591216 -0.057954
          -0.0579149 -0.0568624 -0.0568419 -0.0559456 -0.0559427 -0.0552374 -0.0552495 -0.0547618 -0.054785 -0.054532 -0.0545619 -0.0545517
          -0.0677386 -0.0677361 -0.0675188 -0.0674945 -0.0670343 -0.0669934 -0.0663109 -0.0662578 -0.065382 -0.0653211 -0.0642881 -0.0642231
          -0.0630746 -0.0630087 -0.0617905 -0.0617267 -0.0604877 -0.0604294 -0.0592191 -0.0591702 -0.0580362 -0.0579995 -0.0569847 -0.0569618
          -0.0561032 -0.0560943 -0.0554219 -0.0554263 -0.0549626 -0.0549783 -0.054738 -0.0547625 -0.0547529 -0.067491 -0.0674883 -0.0673021
          -0.0672546 -0.0668552 -0.0667685 -0.0661733 -0.0660538 -0.0652881 -0.0651439 -0.0642393 -0.0640794 -0.0630724 -0.0629062 -0.0618369
          -0.0616734 -0.0605834 -0.0604302 -0.0593609 -0.0592239 -0.0582162 -0.0581 -0.0571926 -0.0571008 -0.0563285 -0.0562632 -0.0556557
          -0.055617 -0.0551967 -0.0551834 -0.0549651 -0.0549748 -0.0549659 -0.0673546 -0.0673518 -0.0671651 -0.0671229 -0.0667242 -0.0666477
          -0.0660546 -0.0659497 -0.0651875 -0.0650609 -0.0641611 -0.06402 -0.063019 -0.0628704 -0.0618082 -0.0616592 -0.0605779 -0.0604351
          -0.0593772 -0.0592471 -0.0582537 -0.0581414 -0.0572503 -0.0571599 -0.0564042 -0.0563381 -0.0557452 -0.0557045 -0.0552951 -0.0552793
          -0.0550668 -0.0550741 -0.0550652 -0.0672466 -0.0672446 -0.0670717 -0.0670191 -0.0666473 -0.0665499 -0.0659958 -0.0658605 -0.0651474
          -0.0649828 -0.0641403 -0.0639559 -0.0630181 -0.0628239 -0.0618281 -0.0616338 -0.0606189 -0.060433 -0.059438 -0.0592677 -0.0583306
          -0.0581822 -0.0573389 -0.0572171 -0.0564998 -0.056408 -0.055844 -0.0557836 -0.0553937 -0.0553645 -0.0551624 -0.055163 -0.0551563
          -0.0672372 -0.0672352 -0.0670603 -0.0670079 -0.0666358 -0.0665387 -0.0659844 -0.0658497 -0.0651366 -0.0649728 -0.0641304 -0.0639472
          -0.0630096 -0.0628168 -0.0618212 -0.0616283 -0.0606137 -0.060429 -0.0594343 -0.0592652 -0.0583283 -0.0581808 -0.0573377 -0.0572167
          -0.0564996 -0.0564084 -0.0558445 -0.0557846 -0.0553948 -0.055366 -0.0551642 -0.0551636 -0.0551568
        </DataArray>
        <DataArray type="Float32" Name="X^H2O" NumberOfComponents="1" format="ascii">
          0.007 0.0111538 0.007 0.00681806 0.00676796 0.00677136 0.00673731 0.00672229 0.0067053 0.0066674 0.0066653 0.00660259
          0.00661907 0.00652391 0.0065471 0.00639465 0.00650485 0.006326 0.0063989 0.00620431 0.0063667 0.00614078 0.00626379 0.00602512
          0.00622465 0.0059476 0.00606256 0.0058168 0.00594825 0.00570876 0.0102687 0.00555289 0.00643227 0.00539304 0.00467246 0.00526279
          0.0051579 0.00522133 0.00523883 0.00520285 0.00517642 0.00520101 0.00523055 0.00521069 0.00522212 0.00522931 0.00527657 0.00526127
          0.00530834 0.00530569 0.0053892 0.00537315 0.00547686 0.00546652 0.00562646 0.00560631 0.00582008 0.00580239 0.00610776 0.00608358
          0.00645187 0.00643279 0.00679586 0.00677871 0.007 0.007 0.007 0.00685349 0.00680702 0.00674947 0.00666561 0.00655967
          0.00644263 0.00625451 0.00615743 0.00602119 0.00592885 0.00580626 0.00571365 0.00559843 0.00550359 0.00540197 0.00530786 0.00523541
          0.00520198 0.00518654 0.00518557 0.00519404 0.00521194 0.00524107 0.00528335 0.00534627 0.00543576 0.00556919 0.00576069 0.0060381
          0.00639255 0.00675201 0.007 0.007 0.006904 0.00685861 0.00678996 0.00667727 0.00651821 0.00635347 0.00614767 0.0060217
          0.00587578 0.00576659 0.00564792 0.00555491 0.00545889 0.00538057 0.0053059 0.00524795 0.0052049 0.00518129 0.00516999 0.00517025
          0.00517817 0.00519527 0.00522204 0.00526213 0.00532092 0.00540652 0.00553388 0.00572083 0.00599455 0.00635465 0.00672845 0.007
          0.007 0.00693777 0.00689917 0.00682139 0.00667741 0.00646343 0.00625367 0.00604965 0.00589915 0.00574861 0.00563435 0.00552415
          0.00543925 0.0053602 0.00529888 0.00524569 0.00520608 0.00517695 0.00516128 0.00515371 0.00515523 0.00516294 0.00517923 0.00520402
          0.00524189 0.00529691 0.00537861 0.00550023 0.00568261 0.00595287 0.0063191 0.00670849 0.007 0.007 0.00696451 0.00693093
          0.00683884 0.00665652 0.00639262 0.00616171 0.00594948 0.00578575 0.00563738 0.00552575 0.00542726 0.00535305 0.00528893 0.0052409
          0.0052012 0.0051737 0.00515373 0.00514305 0.00513819 0.00514066 0.00514828 0.00516373 0.00518682 0.00522245 0.00527402 0.00535177
          0.00546794 0.00564558 0.0059126 0.00628515 0.00669149 0.007 0.007 0.00697791 0.00694889 0.00683462 0.00660581 0.00631219
          0.00606761 0.00584768 0.00568032 0.0055393 0.00543562 0.00534977 0.00528689 0.00523533 0.00519796 0.00516829 0.00514807 0.00513359
          0.00512634 0.00512346 0.00512663 0.00513417 0.00514876 0.00517031 0.0052037 0.00525205 0.0053258 0.00543673 0.00560942 0.00587329
          0.00625232 0.00667715 0.007 0.007 0.00698765 0.00696144 0.00681285 0.00653437 0.00622947 0.00596915 0.00574841 0.00558453
          0.00545449 0.00536116 0.0052877 0.00523509 0.0051936 0.00516422 0.00514147 0.00512651 0.00511599 0.00511107 0.00510962 0.00511321
          0.00512059 0.00513432 0.0051544 0.00518557 0.00523082 0.00530053 0.00540629 0.00557374 0.00583431 0.00621964 0.00666434 0.007
          0.007 0.00699123 0.00696142 0.00676645 0.00645708 0.00613494 0.00586729 0.00565249 0.00549787 0.00538098 0.00529914 0.00523716
          0.00519365 0.00516032 0.00513713 0.00511955 0.00510817 0.00510035 0.00509707 0.00509663 0.00510045 0.0051076 0.00512042 0.00513909
          0.00516805 0.00521027 0.00527587 0.00537644 0.00553829 0.00579522 0.00618657 0.00665272 0.007 0.007 0.00699345 0.0069519
          0.00670918 0.00637084 0.00603475 0.00576706 0.00556326 0.00542114 0.00531809 0.0052475 0.00519567 0.00515984 0.005133 0.00511457
          0.00510083 0.00509215 0.00508636 0.00508426 0.00508452 0.0050884 0.00509523 0.00510711 0.00512437 0.00515111 0.00519033 0.00525174
          0.005347 0.00550279 0.00575546 0.00615214 0.00664109 0.007 0.007 0.00699393 0.00692745 0.00664206 0.00627238 0.00592962
          0.00566939 0.0054808 0.00535336 0.00526414 0.0052042 0.00516124 0.0051319 0.00511031 0.00509562 0.00508485 0.00507815 0.00507384
          0.00507256 0.00507328 0.0050771 0.00508353 0.00509444 0.00511029 0.00513481 0.00517103 0.00522817 0.00531793 0.00546715 0.00571473
          0.00611586 0.00662912 0.007 0.007 0.00699605 0.00689507 0.0065639 0.00616768 0.00582516 0.00557775 0.00540664 0.00529442
          0.00521821 0.00516785 0.00513246 0.00510852 0.00509114 0.00507942 0.00507095 0.0050658 0.00506262 0.00506192 0.00506294 0.00506659
          0.00507256 0.00508247 0.00509689 0.00511919 0.00515239 0.00520516 0.00528919 0.00543122 0.00567262 0.00607685 0.00661565 0.007
          0.007 0.00699527 0.00685389 0.00647259 0.00605652 0.00572194 0.00549227 0.0053402 0.00524323 0.00517904 0.00513722 0.00510829
          0.00508886 0.00507493 0.00506558 0.00505893 0.00505495 0.00505262 0.00505233 0.0050535 0.0050569 0.00506235 0.00507126 0.00508425
          0.00510434 0.00513449 0.00518282 0.00526087 0.00539509 0.00562907 0.00603472 0.00660032 0.007 0.007 0.00699211 0.00680275
          0.006372 0.00594417 0.00562385 0.00541477 0.00528186 0.00519926 0.00514581 0.0051114 0.00508792 0.00507224 0.00506111 0.00505369
          0.00504849 0.00504544 0.00504375 0.00504373 0.00504495 0.00504805 0.00505296 0.00506086 0.00507243 0.00509032 0.00511743 0.00516124
          0.00523306 0.0053588 0.00558389 0.00598875 0.00658192 0.007 0.007 0.00698689 0.00673864 0.00626122 0.00583096 0.0055311
          0.00534482 0.0052308 0.00516159 0.00511766 0.00508966 0.00507077 0.00505822 0.00504939 0.00504354 0.00503948 0.00503715 0.00503594
          0.00503609 0.0050373 0.00504006 0.0050444 0.00505132 0.00506148 0.00507723 0.00510131 0.00514057 0.00520596 0.00532258 0.00553725
          0.00593871 0.00655994 0.007 0.007 0.00697845 0.00666177 0.00614444 0.00572109 0.00544598 0.00528307 0.0051868 0.00512962
          0.00509394 0.00507141 0.00505636 0.0050464 0.00503946 0.00503487 0.00503174 0.00502998 0.00502914 0.00502938 0.00503051 0.00503293
          0.0050367 0.00504266 0.00505146 0.00506512 0.00508623 0.00512097 0.00517975 0.00528666 0.00548926 0.00588413 0.00653307 0.007
          0.007 0.00696511 0.00657026 0.00602188 0.00561505 0.00536837 0.00522889 0.0051491 0.00510262 0.00507406 0.00505617 0.00504432
          0.00503651 0.00503111 0.00502756 0.00502517 0.00502384 0.00502327 0.00502355 0.00502457 0.00502665 0.00502986 0.00503491 0.0050424
          0.00505408 0.00507229 0.00510258 0.00515469 0.00525139 0.00544031 0.00582502 0.00650052 0.007 0.007 0.00694463 0.00646528
          0.00589784 0.00551586 0.00529935 0.00518224 0.00511724 0.00508007 0.00505755 0.00504354 0.00503434 0.0050283 0.00502415 0.00502143
          0.00501962 0.00501865 0.00501826 0.00501856 0.00501945 0.00502119 0.00502387 0.00502807 0.00503433 0.00504413 0.00505958 0.00508555
          0.00513099 0.00521712 0.0053908 0.0057613 0.00646079 0.007 0.007 0.00691411 0.00634612 0.00577341 0.00542392 0.00523854
          0.00514243 0.00509058 0.00506141 0.00504395 0.00503317 0.00502615 0.00502155 0.00501841 0.00501636 0.00501502 0.00501431 0.00501406
          0.00501434 0.00501509 0.00501652 0.00501871 0.00502213 0.00502726 0.00503533 0.00504818 0.00507002 0.00510892 0.0051843 0.00534139
          0.00569336 0.00641274 0.007 0.007 0.00686999 0.00621536 0.0056526 0.0053411 0.00518622 0.00510912 0.00506861 0.00504618
          0.00503291 0.00502477 0.00501951 0.00501607 0.00501374 0.00501223 0.00501125 0.00501075 0.0050106 0.00501084 0.00501146 0.00501259
          0.00501434 0.00501706 0.00502117 0.00502766 0.00503811 0.00505609 0.0050887 0.00515333 0.00529271 0.00562165 0.0063547 0.007