<?xml version="1.0"?>
<VTKFile type="UnstructuredGrid" version="0.1" byte_order="LittleEndian">
  <UnstructuredGrid>
    <Piece NumberOfCells="100" NumberOfPoints="121">
      <PointData Scalars="pressure_H2O" Vectors="filterVelocity_H2O">
        <DataArray type="Float32" Name="pressure_H2O" NumberOfComponents="1" format="ascii">
          198285 198230 190045 190433 198461 191784 198776 193744 199027 195205 199119 195669
          199029 195211 198779 193758 198462 191799 198213 190418 197964 190002 181210 181676
          183777 189895 192341 193102 192352 189920 183833 181734 181264 171590 171840 172171
          178252 182409 183371 182444 178336 172304 171973 171723 161452 161522 161725 163548
          165953 166687 166029 163708 161932 161731 161662 151118 151118 151116 151116 151127
          151162 151233 151337 151399 151404 151407 140786 140714 140507 138673 136273 135601
          136398 138943 140861 141081 141160 130654 130399 130059 123929 119731 118802 119854
          124214 130472 130854 131134 121051 120577 118437 112233 109720 108966 109828 112468
          118846 121152 121702 112231 111866 110475 108366 106774 106284 106857 108558 110851
          112640 113282 103660 104367 103946 103287 102751 102564 102787 103373 104132 104867
          106693
        </DataArray>
        <DataArray type="Float32" Name="density_H2O" NumberOfComponents="1" format="ascii">
          1000 1000 1000 1000 1000 1000 1000 1000 1000 1000 1000 1000
          1000 1000 1000 1000 1000 1000 1000 1000 1000 1000 1000 1000
          1000 1000 1000 1000 1000 1000 1000 1000 1000 1000 1000 1000
          1000 1000 1000 1000 1000 1000 1000 1000 1000 1000 1000 1000
          1000 1000 1000 1000 1000 1000 1000 1000 1000 1000 1000 1000
          1000 1000 1000 1000 1000 1000 1000 1000 1000 1000 1000 1000
          1000 1000 1000 1000 1000 1000 1000 1000 1000 1000 1000 1000
          1000 1000 1000 1000 1000 1000 1000 1000 1000 1000 1000 1000
          1000 1000 1000 1000 1000 1000 1000 1000 1000 1000 1000 1000
          1000 1000 1000 1000 1000 1000 1000 1000 1000 1000 1000 1000
          1000
        </DataArray>
        <DataArray type="Float32" Name="porosity" NumberOfComponents="1" format="ascii">
          0.4 0.4 0.4 0.4 0.4 0.4 0.4 0.4 0.4 0.4 0.4 0.4
          0.4 0.4 0.4 0.4 0.4 0.4 0.4 0.4 0.4 0.4 0.4 0.4
          0.4 0.4 0.4 0.4 0.4 0.4 0.4 0.4 0.4 0.4 0.4 0.4
          0.4 0.4 0.4 0.4 0.4 0.4 0.4 0.4 0.4 0.4 0.4 0.4
          0.4 0.4 0.4 0.4 0.4 0.4 0.4 0.4 0.4 0.4 0.4 0.4
          0.4 0.4 0.4 0.4 0.4 0.4 0.4 0.4 0.4 0.4 0.4 0.4
          0.4 0.4 0.4 0.4 0.4 0.4 0.4 0.4 0.4 0.4 0.4 0.4
          0.4 0.4 0.4 0.4 0.4 0.4 0.4 0.4 0.4 0.4 0.4 0.4
          0.4 0.4 0.4 0.4 0.4 0.4 0.4 0.4 0.4 0.4 0.4 0.4
          0.4 0.4 0.4 0.4 0.4 0.4 0.4 0.4 0.4 0.4 0.4 0.4
          0.4
        </DataArray>
        <DataArray type="Float32" Name="filterVelocity_H2O" NumberOfComponents="3" format="ascii">
          -0.00016605 0.00714733 0 -0.000469853 0.00672017 0 -0.000305418 0.00750663 0 -0.000824869 0.00722678 0
          -0.000922349 0.0056313 0 -0.00196965 0.0060721 0 -0.000960645 0.00415292 0 -0.0020239 0.00390634 0
          -0.000572222 0.00299186 0 -0.000985101 0.00258788 0 -2.06069e-06 0.00256783 0 -3.64527e-06 0.00218955 0
          0.000568417 0.00298614 0 0.000978411 0.00258263 0 0.00095903 0.00414202 0 0.00201626 0.00389299 0
          0.000933845 0.00562023 0 0.00197309 0.00604408 0 0.000560818 0.00668459 0 0.000874987 0.00716856 0
          0.000330877 0.00693787 0 0.000391529 0.00736256 0 -0.000392868 0.00828473 0 -0.000993522 0.00843152 0
          -0.00376002 0.0087152 0 -0.00418694 0.00628253 0 -0.0017944 0.00456699 0 -8.37321e-06 0.00333504 0
          0.00178085 0.00454149 0 0.00416412 0.00624597 0 0.00374425 0.00865457 0 0.00100104 0.00835815 0
          0.000401228 0.00820135 0 -0.000256579 0.00895469 0 -0.000502647 0.00920474 0 -0.00290181 0.0101497 0
          -7.7399e-05 0.00018332 0 -3.20114e-05 0.000162562 0 -2.62217e-07 0.000163541 0 3.1454e-05 0.000162167 0
          7.66937e-05 0.000182289 0 0.00287991 0.0100757 0 0.000502663 0.00912889 0 0.000257316 0.00887734 0
          -9.70059e-05 0.00928708 0 -0.000140943 0.00938615 0 -0.00135594 0.00989991 0 -2.73962e-05 0.000139655 0
          -1.50687e-05 0.000144747 0 -3.79025e-07 0.000150296 0 1.42897e-05 0.000144404 0 2.66563e-05 0.000138735 0
          0.00132932 0.00982627 0 0.000139493 0.00930926 0 9.61003e-05 0.00920923 0 7.79489e-07 0.0093696 0
          1.25206e-06 0.00944008 0 2.33273e-06 0.00983232 0 -1.67202e-08 0.00011923 0 -1.99355e-07 0.000136398 0
          -5.23182e-07 0.00014381 0 -9.23558e-07 0.000136146 0 -9.85336e-07 0.000118733 0 -3.79279e-05 0.0097605 0
          -5.62108e-06 0.00936145 0 -3.78957e-06 0.00928835 0 9.94921e-05 0.00928352 0 0.000144699 0.00938416 0
          0.00136811 0.00990365 0 2.75508e-05 0.000140019 0 1.48309e-05 0.000145323 0 -6.26677e-07 0.00015107 0
          -1.61569e-05 0.00014521 0 -2.89259e-05 0.0001401 0 -0.00142377 0.00983974 0 -0.000158671 0.00930124 0
          -0.000109574 0.00919126 0 0.000261432 0.00894418 0 0.000512838 0.00919857 0 0.00293454 0.0101607 0
          7.82546e-05 0.000184062 0 3.21757e-05 0.000163762 0 -9.12401e-07 0.000165058 0 -3.41071e-05 0.000163673 0
          -8.06352e-05 0.000184395 0 -0.00303108 0.0101282 0 -0.000562449 0.0091026 0 -0.000293751 0.008816 0
          0.000392637 0.00826584 0 0.00101202 0.00840824 0 0.003829 0.00871264 0 0.0042717 0.00630362 0
          0.00184821 0.00460414 0 -7.23451e-05 0.00343679 0 -0.0019589 0.00467513 0 -0.00442268 0.006347 0
          -0.00400081 0.0087012 0 -0.00116924 0.00826616 0 -0.000501824 0.00802263 0 0.000140188 0.00757667 0
          0.000794126 0.00711833 0 0.00209781 0.00598338 0 0.00217989 0.00393096 0 0.00108862 0.00272872 0
          -4.55407e-05 0.00239286 0 -0.00117795 0.00276854 0 -0.00231123 0.00401179 0 -0.00232193 0.00606474 0
          -0.0013105 0.00698126 0 -0.00087127 0.00676717 0 -0.000185771 0.00730685 0 0.000337312 0.00653304 0
          0.00109842 0.00547723 0 0.00117965 0.00418939 0 0.000712907 0.00318263 0 -3.19206e-05 0.00282804 0
          -0.000780397 0.00323522 0 -0.00128732 0.00430457 0 -0.00133734 0.0056769 0 -0.00125996 0.00646541 0
          -0.00129523 0.00596486 0
        </DataArray>
        <DataArray type="Float32" Name="temperature" NumberOfComponents="1" format="ascii">
          283.15 283.15 283.15 283.15 283.15 283.15 283.15 283.15 283.15 283.15 283.15 283.15
          283.15 283.15 283.15 283.15 283.15 283.15 283.15 283.15 283.15 283.15 283.15 283.15
          283.15 283.15 283.15 283.15 283.15 283.15 283.15 283.15 283.15 283.15 283.15 283.15
          283.15 283.15 283.15 283.15 283.15 283.15 283.15 283.15 283.15 283.15 283.15 283.15
          283.15 283.15 283.15 283.15 283.15 283.15 283.15 283.15 283.15 283.15 283.15 283.15
          283.15 283.15 283.15 283.15 283.15 283.15 283.15 283.15 283.15 283.15 283.15 283.15
          283.15 283.15 283.15 283.15 283.15 283.15 283.15 283.15 283.15 283.15 283.15 283.15
          283.15 283.15 283.15 283.15 283.15 283.15 283.15 283.15 283.15 283.15 283.15 283.15
          283.15 283.15 283.15 283.15 283.15 283.15 283.15 283.15 283.15 283.15 283.15 283.15
          283.15 283.15 283.15 283.15 283.15 283.15 283.15 283.15 283.15 283.15 283.15 283.15
          283.15
        </DataArray>
      </PointData>
      <Points>
        <DataArray type="Float32" Name="Coordinates" NumberOfComponents="3" format="ascii">
          0 0 0 0.1 0 0 0 0.1 0 0.1 0.1 0
          0.2 0 0 0.2 0.1 0 0.3 0 0 0.3 0.1 0
          0.4 0 0 0.4 0.1 0 0.5 0 0 0.5 0.1 0
          0.6 0 0 0.6 0.1 0 0.7 0 0 0.7 0.1 0
          0.8 0 0 0.8 0.1 0 0.9 0 0 0.9 0.1 0
          1 0 0 1 0.1 0 0 0.2 0 0.1 0.2 0
          0.2 0.2 0 0.3 0.2 0 0.4 0.2 0 0.5 0.2 0
          0.6 0.2 0 0.7 0.2 0 0.8 0.2 0 0.9 0.2 0
          1 0.2 0 0 0.3 0 0.1 0.3 0 0.2 0.3 0
          0.3 0.3 0 0.4 0.3 0 0.5 0.3 0 0.6 0.3 0
          0.7 0.3 0 0.8 0.3 0 0.9 0.3 0 1 0.3 0
          0 0.4 0 0.1 0.4 0 0.2 0.4 0 0.3 0.4 0
          0.4 0.4 0 0.5 0.4 0 0.6 0.4 0 0.7 0.4 0
          0.8 0.4 0 0.9 0.4 0 1 0.4 0 0 0.5 0
          0.1 0.5 0 0.2 0.5 0 0.3 0.5 0 0.4 0.5 0
          0.5 0.5 0 0.6 0.5 0 0.7 0.5 0 0.8 0.5 0
          0.9 0.5 0 1 0.5 0 0 0.6 0 0.1 0.6 0
          0.2 0.6 0 0.3 0.6 0 0.4 0.6 0 0.5 0.6 0
          0.6 0.6 0 0.7 0.6 0 0.8 0.6 0 0.9 0.6 0
          1 0.6 0 0 0.7 0 0.1 0.7 0 0.2 0.7 0
          0.3 0.7 0 0.4 0.7 0 0.5 0.7 0 0.6 0.7 0
          0.7 0.7 0 0.8 0.7 0 0.9 0.7 0 1 0.7 0
          0 0.8 0 0.1 0.8 0 0.2 0.8 0 0.3 0.8 0
          0.4 0.8 0 0.5 0.8 0 0.6 0.8 0 0.7 0.8 0
          0.8 0.8 0 0.9 0.8 0 1 0.8 0 0 0.9 0
          0.1 0.9 0 0.2 0.9 0 0.3 0.9 0 0.4 0.9 0
          0.5 0.9 0 0.6 0.9 0 0.7 0.9 0 0.8 0.9 0
          0.9 0.9 0 1 0.9 0 0 1 0 0.1 1 0
          0.2 1 0 0.3 1 0 0.4 1 0 0.5 1 0
          0.6 1 0 0.7 1 0 0.8 1 0 0.9 1 0
          1 1 0
        </DataArray>
      </Points>
      <Cells>
        <DataArray type="Int32" Name="connectivity" NumberOfComponents="1" format="ascii">
          0 1 3 2 1 4 5 3 4 6 7 5
          6 8 9 7 8 10 11 9 10 12 13 11
          12 14 15 13 14 16 17 15 16 18 19 17
          18 20 21 19 2 3 23 22 3 5 24 23
          5 7 25 24 7 9 26 25 9 11 27 26
          11 13 28 27 13 15 29 28 15 17 30 29
          17 19 31 30 19 21 32 31 22 23 34 33
          23 24 35 34 24 25 36 35 25 26 37 36
          26 27 38 37 27 28 39 38 28 29 40 39
          29 30 41 40 30 31 42 41 31 32 43 42
          33 34 45 44 34 35 46 45 35 36 47 46
          36 37 48 47 37 38 49 48 38 39 50 49
          39 40 51 50 40 41 52 51 41 42 53 52
          42 43 54 53 44 45 56 55 45 46 57 56
          46 47 58 57 47 48 59 58 48 49 60 59
          49 50 61 60 50 51 62 61 51 52 63 62
          52 53 64 63 53 54 65 64 55 56 67 66
          56 57 68 67 57 58 69 68 58 59 70 69
          59 60 71 70 60 61 72 71 61 62 73 72
          62 63 74 73 63 64 75 74 64 65 76 75
          66 67 78 77 67 68 79 78 68 69 80 79
          69 70 81 80 70 71 82 81 71 72 83 82
          72 73 84 83 73 74 85 84 74 75 86 85
          75 76 87 86 77 78 89 88 78 79 90 89
          79 80 91 90 80 81 92 91 81 82 93 92
          82 83 94 93 83 84 95 94 84 85 96 95
          85 86 97 96 86 87 98 97 88 89 100 99
          89 90 101 100 90 91 102 101 91 92 103 102
          92 93 104 103 93 94 105 104 94 95 106 105
          95 96 107 106 96 97 108 107 97 98 109 108
          99 100 111 110 100 101 112 111 101 102 113 112
          102 103 114 113 103 104 115 114 104 105 116 115
          105 106 117 116 106 107 118 117 107 108 119 118
          108 109 120 119
        </DataArray>
        <DataArray type="Int32" Name="offsets" NumberOfComponents="1" format="ascii">
          4 8 12 16 20 24 28 32 36 40 44 48
          52 56 60 64 68 72 76 80 84 88 92 96
          100 104 108 112 116 120 124 128 132 136 140 144
          148 152 156 160 164 168 172 176 180 184 188 192
          196 200 204 208 212 216 220 224 228 232 236 240
          244 248 252 256 260 264 268 272 276 280 284 288
          292 296 300 304 308 312 316 320 324 328 332 336
          340 344 348 352 356 360 364 368 372 376 380 384
          388 392 396 400
        </DataArray>
        <DataArray type="UInt8" Name="types" NumberOfComponents="1" format="ascii">
          9 9 9 9 9 9 9 9 9 9 9 9
          9 9 9 9 9 9 9 9 9 9 9 9
          9 9 9 9 9 9 9 9 9 9 9 9
          9 9 9 9 9 9 9 9 9 9 9 9
          9 9 9 9 9 9 9 9 9 9 9 9
          9 9 9 9 9 9 9 9 9 9 9 9
          9 9 9 9 9 9 9 9 9 9 9 9
          9 9 9 9 9 9 9 9 9 9 9 9
          9 9 9 9
        </DataArray>
      </Cells>
    </Piece>
  </UnstructuredGrid>
</VTKFile>
