<?xml version="1.0"?>
<VTKFile type="UnstructuredGrid" version="0.1" byte_order="LittleEndian">
  <UnstructuredGrid>
    <Piece NumberOfCells="384" NumberOfPoints="425">
      <PointData Scalars="pressure_l">
        <DataArray type="Float32" Name="pressure_l" NumberOfComponents="1" format="ascii">
          2.63165e+07 2.63214e+07 2.62952e+07 2.62955e+07 2.63231e+07 2.62968e+07 2.63243e+07 2.62979e+07 2.63253e+07 2.62989e+07 2.63262e+07 2.62997e+07
          2.63269e+07 2.63004e+07 2.63275e+07 2.6301e+07 2.6328e+07 2.63015e+07 2.63285e+07 2.6302e+07 2.63292e+07 2.63026e+07 2.63301e+07 2.63035e+07
          2.63312e+07 2.63047e+07 2.63325e+07 2.6306e+07 2.63337e+07 2.63072e+07 2.63349e+07 2.63085e+07 2.63361e+07 2.63097e+07 2.63373e+07 2.63108e+07
          2.63384e+07 2.6312e+07 2.63395e+07 2.63131e+07 2.63406e+07 2.63142e+07 2.63417e+07 2.63152e+07 2.63426e+07 2.63162e+07 2.63433e+07 2.6317e+07
          2.63436e+07 2.63174e+07 2.62692e+07 2.62698e+07 2.62707e+07 2.62717e+07 2.62726e+07 2.62734e+07 2.62741e+07 2.62747e+07 2.62751e+07 2.62752e+07
          2.62756e+07 2.62765e+07 2.62781e+07 2.62795e+07 2.62808e+07 2.6282e+07 2.62832e+07 2.62844e+07 2.62855e+07 2.62866e+07 2.62877e+07 2.62888e+07
          2.629e+07 2.62911e+07 2.62922e+07 2.6243e+07 2.62438e+07 2.62446e+07 2.62455e+07 2.62464e+07 2.62472e+07 2.6248e+07 2.62486e+07 2.6249e+07
          2.62489e+07 2.62491e+07 2.62495e+07 2.62517e+07 2.62532e+07 2.62545e+07 2.62557e+07 2.62568e+07 2.62579e+07 2.6259e+07 2.62601e+07 2.62613e+07
          2.62624e+07 2.62637e+07 2.62651e+07 2.62671e+07 2.62168e+07 2.62176e+07 2.62184e+07 2.62193e+07 2.62202e+07 2.62211e+07 2.62219e+07 2.62227e+07
          2.62233e+07 2.62235e+07 2.62238e+07 2.62242e+07 2.62256e+07 2.6227e+07 2.62282e+07 2.62293e+07 2.62304e+07 2.62315e+07 2.62326e+07 2.62337e+07
          2.62348e+07 2.6236e+07 2.62372e+07 2.62388e+07 2.62408e+07 2.61906e+07 2.61914e+07 2.61923e+07 2.61931e+07 2.6194e+07 2.6195e+07 2.61959e+07
          2.61968e+07 2.61977e+07 2.6198e+07 2.61983e+07 2.61987e+07 2.61998e+07 2.62009e+07 2.6202e+07 2.6203e+07 2.62041e+07 2.62051e+07 2.62061e+07
          2.62072e+07 2.62082e+07 2.62094e+07 2.62106e+07 2.6212e+07 2.62139e+07 2.61644e+07 2.61652e+07 2.6166e+07 2.61669e+07 2.61679e+07 2.61688e+07
          2.61699e+07 2.6171e+07 2.61722e+07 2.61725e+07 2.61729e+07 2.61732e+07 2.6174e+07 2.61749e+07 2.61758e+07 2.61767e+07 2.61777e+07 2.61787e+07
          2.61797e+07 2.61807e+07 2.61817e+07 2.61827e+07 2.61837e+07 2.61848e+07 2.61859e+07 2.61381e+07 2.61389e+07 2.61397e+07 2.61406e+07 2.61416e+07
          2.61427e+07 2.61438e+07 2.61451e+07 2.61466e+07 2.6147e+07 2.61474e+07 2.61477e+07 2.61482e+07 2.61489e+07 2.61496e+07 2.61504e+07 2.61513e+07
          2.61522e+07 2.61532e+07 2.61541e+07 2.61551e+07 2.6156e+07 2.61569e+07 2.61576e+07 2.61579e+07 2.61119e+07 2.61126e+07 2.61134e+07 2.61143e+07
          2.61153e+07 2.61164e+07 2.61176e+07 2.61191e+07 2.61209e+07 2.61217e+07 2.61221e+07 2.61224e+07 2.61223e+07 2.61227e+07 2.61233e+07 2.61241e+07
          2.61249e+07 2.61258e+07 2.61267e+07 2.61276e+07 2.61285e+07 2.61294e+07 2.61301e+07 2.61306e+07 2.61308e+07 2.60857e+07 2.60864e+07 2.60873e+07
          2.60882e+07 2.60893e+07 2.60904e+07 2.60917e+07 2.60932e+07 2.60951e+07 2.60959e+07 2.60964e+07 2.60966e+07 2.60965e+07 2.60967e+07 2.60972e+07
          2.60979e+07 2.60986e+07 2.60994e+07 2.61002e+07 2.6101e+07 2.61018e+07 2.61025e+07 2.61032e+07 2.61036e+07 2.61037e+07 2.60595e+07 2.60604e+07
          2.60613e+07 2.60623e+07 2.60635e+07 2.60647e+07 2.6066e+07 2.60676e+07 2.60692e+07 2.60697e+07 2.60701e+07 2.60704e+07 2.60706e+07 2.60709e+07
          2.60713e+07 2.60718e+07 2.60724e+07 2.6073e+07 2.60737e+07 2.60744e+07 2.6075e+07 2.60756e+07 2.6076e+07 2.60763e+07 2.60764e+07 2.60333e+07
          2.60343e+07 2.60353e+07 2.60364e+07 2.60375e+07 2.60388e+07 2.60402e+07 2.60417e+07 2.60433e+07 2.60438e+07 2.60441e+07 2.60444e+07 2.60447e+07
          2.6045e+07 2.60453e+07 2.60457e+07 2.60461e+07 2.60467e+07 2.60472e+07 2.60477e+07 2.60482e+07 2.60487e+07 2.6049e+07 2.60493e+07 2.60494e+07
          2.60071e+07 2.60082e+07 2.60093e+07 2.60104e+07 2.60115e+07 2.60128e+07 2.60142e+07 2.60157e+07 2.60174e+07 2.60179e+07 2.60183e+07 2.60185e+07
          2.60188e+07 2.60189e+07 2.60192e+07 2.60195e+07 2.60198e+07 2.60203e+07 2.60207e+07 2.60212e+07 2.60216e+07 2.60219e+07 2.60222e+07 2.60224e+07
          2.60224e+07 2.59809e+07 2.59821e+07 2.59832e+07 2.59843e+07 2.59854e+07 2.59867e+07 2.5988e+07 2.59895e+07 2.59915e+07 2.59922e+07 2.59928e+07
          2.5993e+07 2.59929e+07 2.59928e+07 2.5993e+07 2.59932e+07 2.59935e+07 2.59938e+07 2.59942e+07 2.59946e+07 2.59949e+07 2.59952e+07 2.59954e+07
          2.59956e+07 2.59956e+07 2.59547e+07 2.5956e+07 2.59571e+07 2.59581e+07 2.59592e+07 2.59604e+07 2.59617e+07 2.59631e+07 2.59646e+07 2.59662e+07
          2.59668e+07 2.5967e+07 2.59666e+07 2.59666e+07 2.59667e+07 2.59669e+07 2.59671e+07 2.59674e+07 2.59677e+07 2.5968e+07 2.59683e+07 2.59686e+07
          2.59688e+07 2.59689e+07 2.5969e+07 2.59287e+07 2.59304e+07 2.5931e+07 2.59319e+07 2.59329e+07 2.59341e+07 2.59353e+07 2.59366e+07 2.59379e+07
          2.5939e+07 2.59397e+07 2.59401e+07 2.59401e+07 2.59402e+07 2.59403e+07 2.59405e+07 2.59407e+07 2.5941e+07 2.59412e+07 2.59415e+07 2.59418e+07
          2.5942e+07 2.59422e+07 2.59423e+07 2.59424e+07 2.59074e+07 2.59044e+07 2.59047e+07 2.59055e+07 2.59065e+07 2.59076e+07 2.59089e+07 2.59101e+07
          2.59113e+07 2.59123e+07 2.59131e+07 2.59134e+07 2.59136e+07 2.59137e+07 2.59138e+07 2.5914e+07 2.59142e+07 2.59145e+07 2.59148e+07 2.5915e+07
          2.59153e+07 2.59155e+07 2.59157e+07 2.59158e+07 2.59158e+07
        </DataArray>
        <DataArray type="Float32" Name="pressure_g" NumberOfComponents="1" format="ascii">
          2.63215e+07 2.63264e+07 2.63002e+07 2.63005e+07 2.63281e+07 2.63018e+07 2.63293e+07 2.63029e+07 2.63303e+07 2.63039e+07 2.63312e+07 2.63047e+07
          2.63319e+07 2.63054e+07 2.63325e+07 2.6306e+07 2.6333e+07 2.63065e+07 2.63335e+07 2.6307e+07 2.63342e+07 2.63076e+07 2.63351e+07 2.63085e+07
          2.63362e+07 2.63097e+07 2.63375e+07 2.6311e+07 2.63387e+07 2.63122e+07 2.63399e+07 2.63135e+07 2.63411e+07 2.63147e+07 2.63423e+07 2.63158e+07
          2.63434e+07 2.6317e+07 2.63445e+07 2.63181e+07 2.63456e+07 2.63192e+07 2.63467e+07 2.63202e+07 2.63476e+07 2.63212e+07 2.63483e+07 2.6322e+07
          2.63486e+07 2.63224e+07 2.62742e+07 2.62748e+07 2.62757e+07 2.62767e+07 2.62776e+07 2.62784e+07 2.62791e+07 2.62797e+07 2.62801e+07 2.62802e+07
          2.62806e+07 2.62815e+07 2.62831e+07 2.62845e+07 2.62858e+07 2.6287e+07 2.62882e+07 2.62894e+07 2.62905e+07 2.62916e+07 2.62927e+07 2.62938e+07
          2.6295e+07 2.62961e+07 2.62972e+07 2.6248e+07 2.62488e+07 2.62496e+07 2.62505e+07 2.62514e+07 2.62522e+07 2.6253e+07 2.62536e+07 2.6254e+07
          2.62539e+07 2.62541e+07 2.62545e+07 2.62567e+07 2.62582e+07 2.62595e+07 2.62607e+07 2.62618e+07 2.62629e+07 2.6264e+07 2.62651e+07 2.62663e+07
          2.62674e+07 2.62687e+07 2.62701e+07 2.62721e+07 2.62218e+07 2.62226e+07 2.62234e+07 2.62243e+07 2.62252e+07 2.62261e+07 2.62269e+07 2.62277e+07
          2.62283e+07 2.62285e+07 2.62288e+07 2.62292e+07 2.62306e+07 2.6232e+07 2.62332e+07 2.62343e+07 2.62354e+07 2.62365e+07 2.62376e+07 2.62387e+07
          2.62398e+07 2.6241e+07 2.62422e+07 2.62438e+07 2.62458e+07 2.61956e+07 2.61964e+07 2.61973e+07 2.61981e+07 2.6199e+07 2.62e+07 2.62009e+07
          2.62018e+07 2.62027e+07 2.6203e+07 2.62033e+07 2.62037e+07 2.62048e+07 2.62059e+07 2.6207e+07 2.6208e+07 2.62091e+07 2.62101e+07 2.62111e+07
          2.62122e+07 2.62132e+07 2.62144e+07 2.62156e+07 2.6217e+07 2.62189e+07 2.61694e+07 2.61702e+07 2.6171e+07 2.61719e+07 2.61729e+07 2.61738e+07
          2.61749e+07 2.6176e+07 2.61772e+07 2.61775e+07 2.61779e+07 2.61782e+07 2.6179e+07 2.61799e+07 2.61808e+07 2.61817e+07 2.61827e+07 2.61837e+07
          2.61847e+07 2.61857e+07 2.61867e+07 2.61877e+07 2.61887e+07 2.61898e+07 2.61909e+07 2.61431e+07 2.61439e+07 2.61447e+07 2.61456e+07 2.61466e+07
          2.61477e+07 2.61488e+07 2.61501e+07 2.61516e+07 2.6152e+07 2.61524e+07 2.61527e+07 2.61532e+07 2.61539e+07 2.61546e+07 2.61554e+07 2.61563e+07
          2.61572e+07 2.61582e+07 2.61591e+07 2.61601e+07 2.6161e+07 2.61619e+07 2.61626e+07 2.61629e+07 2.61169e+07 2.61176e+07 2.61184e+07 2.61193e+07
          2.61203e+07 2.61214e+07 2.61226e+07 2.61241e+07 2.61259e+07 2.61267e+07 2.61271e+07 2.61274e+07 2.61273e+07 2.61277e+07 2.61283e+07 2.61291e+07
          2.61299e+07 2.61308e+07 2.61317e+07 2.61326e+07 2.61335e+07 2.61344e+07 2.61351e+07 2.61356e+07 2.61358e+07 2.60957e+07 2.60964e+07 2.60973e+07
          2.60982e+07 2.60993e+07 2.61004e+07 2.61017e+07 2.61032e+07 2.61051e+07 2.61059e+07 2.61064e+07 2.61066e+07 2.61065e+07 2.61067e+07 2.61072e+07
          2.61079e+07 2.61086e+07 2.61094e+07 2.61102e+07 2.6111e+07 2.61118e+07 2.61125e+07 2.61132e+07 2.61136e+07 2.61137e+07 2.60695e+07 2.60704e+07
          2.60713e+07 2.60723e+07 2.60735e+07 2.60747e+07 2.6076e+07 2.60776e+07 2.60792e+07 2.60797e+07 2.60801e+07 2.60804e+07 2.60806e+07 2.60809e+07
          2.60813e+07 2.60818e+07 2.60824e+07 2.6083e+07 2.60837e+07 2.60844e+07 2.6085e+07 2.60856e+07 2.6086e+07 2.60863e+07 2.60864e+07 2.60433e+07
          2.60443e+07 2.60453e+07 2.60464e+07 2.60475e+07 2.60488e+07 2.60502e+07 2.60517e+07 2.60533e+07 2.60538e+07 2.60541e+07 2.60544e+07 2.60547e+07
          2.6055e+07 2.60553e+07 2.60557e+07 2.60561e+07 2.60567e+07 2.60572e+07 2.60577e+07 2.60582e+07 2.60587e+07 2.6059e+07 2.60593e+07 2.60594e+07
          2.60171e+07 2.60182e+07 2.60193e+07 2.60204e+07 2.60215e+07 2.60228e+07 2.60242e+07 2.60257e+07 2.60274e+07 2.60279e+07 2.60283e+07 2.60285e+07
          2.60288e+07 2.60289e+07 2.60292e+07 2.60295e+07 2.60298e+07 2.60303e+07 2.60307e+07 2.60312e+07 2.60316e+07 2.60319e+07 2.60322e+07 2.60324e+07
          2.60324e+07 2.59909e+07 2.59921e+07 2.59932e+07 2.59943e+07 2.59954e+07 2.59967e+07 2.5998e+07 2.59995e+07 2.60015e+07 2.60022e+07 2.60028e+07
          2.6003e+07 2.60029e+07 2.60028e+07 2.6003e+07 2.60032e+07 2.60035e+07 2.60038e+07 2.60042e+07 2.60046e+07 2.60049e+07 2.60052e+07 2.60054e+07
          2.60056e+07 2.60056e+07 2.59647e+07 2.5966e+07 2.59671e+07 2.59681e+07 2.59692e+07 2.59704e+07 2.59717e+07 2.59731e+07 2.59746e+07 2.59762e+07
          2.59768e+07 2.5977e+07 2.59766e+07 2.59766e+07 2.59767e+07 2.59769e+07 2.59771e+07 2.59774e+07 2.59777e+07 2.5978e+07 2.59783e+07 2.59786e+07
          2.59788e+07 2.59789e+07 2.5979e+07 2.59387e+07 2.59404e+07 2.5941e+07 2.59419e+07 2.59429e+07 2.59441e+07 2.59453e+07 2.59466e+07 2.59479e+07
          2.5949e+07 2.59497e+07 2.59501e+07 2.59501e+07 2.59502e+07 2.59503e+07 2.59505e+07 2.59507e+07 2.5951e+07 2.59512e+07 2.59515e+07 2.59518e+07
          2.5952e+07 2.59522e+07 2.59523e+07 2.59524e+07 2.59174e+07 2.59144e+07 2.59147e+07 2.59155e+07 2.59165e+07 2.59176e+07 2.59189e+07 2.59201e+07
          2.59213e+07 2.59223e+07 2.59231e+07 2.59234e+07 2.59236e+07 2.59237e+07 2.59238e+07 2.5924e+07 2.59242e+07 2.59245e+07 2.59248e+07 2.5925e+07
          2.59253e+07 2.59255e+07 2.59257e+07 2.59258e+07 2.59258e+07
        </DataArray>
        <DataArray type="Float32" Name="density_l" NumberOfComponents="1" format="ascii">
          1080.19 1080.19 1080.18 1080.18 1080.19 1080.18 1080.19 1080.18 1080.19 1080.18 1080.19 1080.18
          1080.19 1080.18 1080.19 1080.18 1080.19 1080.18 1080.19 1080.18 1080.19 1080.18 1080.19 1080.18
          1080.19 1080.18 1080.2 1080.18 1080.2 1080.18 1080.2 1080.18 1080.2 1080.19 1080.2 1080.19
          1080.2 1080.19 1080.2 1080.19 1080.2 1080.19 1080.2 1080.19 1080.2 1080.19 1080.2 1080.19
          1080.2 1080.2 1080.17 1080.17 1080.17 1080.17 1080.17 1080.17 1080.17 1080.17 1080.16 1080.15
          1080.15 1080.15 1080.17 1080.17 1080.17 1080.17 1080.17 1080.17 1080.18 1080.18 1080.18 1080.18
          1080.18 1080.18 1082.37 1080.16 1080.16 1080.16 1080.16 1080.16 1080.16 1080.16 1080.16 1080.14
          1017.29 1017.25 1017.65 1080.14 1080.16 1080.16 1080.16 1080.16 1080.16 1080.16 1080.16 1080.17
          1080.17 1080.17 1080.19 1084.53 1080.15 1080.15 1080.15 1080.15 1080.15 1080.15 1080.15 1080.15
          1080.1 1017.12 1017.05 1017.34 1080.12 1080.15 1080.15 1080.15 1080.15 1080.15 1080.15 1080.15
          1080.15 1080.15 1080.16 1080.18 1084.52 1080.14 1080.14 1080.14 1080.14 1080.14 1080.14 1080.14
          1080.14 1080.07 1017.11 1017.04 1017.28 1080.11 1080.14 1080.14 1080.14 1080.14 1080.14 1080.14
          1080.14 1080.14 1080.14 1080.14 1080.17 1084.51 1080.12 1080.12 1080.13 1080.13 1080.13 1080.13
          1080.13 1080.13 1080.05 1017.1 1017.03 1017.23 1080.1 1080.13 1080.13 1080.13 1080.13 1080.13
          1080.13 1080.13 1080.13 1080.13 1080.13 1080.14 1082.33 1080.11 1080.11 1080.11 1080.11 1080.11
          1080.12 1080.12 1080.12 1080.02 1017.09 1017.02 1017.17 1080.09 1080.12 1080.12 1080.12 1080.12
          1080.12 1080.12 1080.12 1080.12 1080.12 1080.12 1080.12 1080.13 1080.1 1080.1 1080.1 1080.1
          1080.1 1080.1 1080.1 1080.11 1079.96 1017.08 1017.01 1017.09 1080.07 1080.11 1080.11 1080.11
          1080.11 1080.11 1080.11 1080.11 1080.11 1080.11 1080.11 1080.11 1080.11 1080.09 1080.09 1080.09
          1080.09 1080.09 1080.09 1080.09 1080.09 1080.06 1017.07 1017 1017.07 1080.07 1080.1 1080.1
          1080.1 1080.1 1080.1 1080.1 1080.1 1080.1 1080.1 1080.1 1080.1 1080.1 1080.08 1080.08
          1080.08 1080.08 1080.08 1080.08 1080.08 1080.08 1080.05 1017.06 1016.99 1017.07 1080.06 1080.09
          1080.09 1080.09 1080.09 1080.09 1080.09 1080.09 1080.09 1080.09 1080.09 1080.09 1080.09 1080.07
          1080.07 1080.07 1080.07 1080.07 1080.07 1080.07 1080.07 1080.04 1017.06 1016.98 1017.06 1080.05
          1080.07 1080.07 1080.07 1080.07 1080.08 1080.08 1080.08 1080.08 1080.08 1080.08 1080.08 1080.08
          1080.06 1080.06 1080.06 1080.06 1080.06 1080.06 1080.06 1080.06 1080.03 1017.05 1016.97 1017.05
          1080.04 1080.06 1080.06 1080.06 1080.06 1080.06 1080.06 1080.06 1080.06 1080.06 1080.06 1080.06
          1080.06 1080.05 1080.05 1080.05 1080.05 1080.05 1080.05 1080.05 1080.05 1080.02 1017.09 1017.04
          1017.09 1080.03 1080.05 1080.05 1080.05 1080.05 1080.05 1080.05 1080.05 1080.05 1080.05 1080.05
          1080.05 1080.05 1080.04 1080.04 1080.04 1080.04 1080.04 1080.04 1080.04 1080.04 1080.03 1080.02
          1080.01 1080.02 1080.04 1080.04 1080.04 1080.04 1080.04 1080.04 1080.04 1080.04 1080.04 1080.04
          1080.04 1080.04 1080.04 1080.03 1080.03 1080.03 1080.03 1080.03 1080.03 1080.03 1080.03 1080.03
          1080.03 1080.03 1080.03 1080.03 1080.03 1080.03 1080.03 1080.03 1080.03 1080.03 1080.03 1080.03
          1080.03 1080.03 1080.03 1080.03 1080.02 1080.02 1080.02 1080.02 1080.02 1080.02 1080.02 1080.02
          1080.02 1080.02 1080.02 1080.02 1080.02 1080.02 1080.02 1080.02 1080.02 1080.02 1080.02 1080.02
          1080.02 1080.02 1080.02 1080.02 1080.02
        </DataArray>
        <DataArray type="Float32" Name="density_g" NumberOfComponents="1" format="ascii">
          969.1 969.122 969.004 969.006 969.13 969.011 969.135 969.016 969.139 969.021 969.143 969.024
          969.146 969.028 969.149 969.03 969.151 969.032 969.154 969.034 969.157 969.037 969.161 969.041
          969.166 969.046 969.171 969.052 969.177 969.058 969.182 969.063 969.188 969.069 969.193 969.074
          969.198 969.079 969.203 969.084 969.208 969.089 969.212 969.093 969.216 969.098 969.22 969.101
          969.221 969.1 968.887 968.89 968.894 968.898 968.902 968.906 968.909 968.912 968.833 968.673
          968.594 968.679 968.847 968.933 968.939 968.945 968.95 968.955 968.96 968.965 968.97 968.975
          968.98 968.982 967.033 968.769 968.772 968.776 968.78 968.784 968.788 968.791 968.794 968.554
          527.519 527.391 529.034 968.567 968.814 968.82 968.826 968.831 968.836 968.841 968.846 968.851
          968.856 968.862 968.859 964.977 968.65 968.654 968.658 968.662 968.665 968.669 968.673 968.676
          968.019 526.441 526.135 527.366 968.368 968.696 968.701 968.706 968.711 968.716 968.721 968.726
          968.731 968.736 968.742 968.739 964.856 968.531 968.535 968.539 968.543 968.547 968.551 968.555
          968.558 967.68 526.002 525.697 526.706 968.251 968.578 968.583 968.587 968.592 968.597 968.601
          968.606 968.611 968.616 968.621 968.619 964.733 968.413 968.417 968.42 968.424 968.429 968.433
          968.438 968.441 967.409 525.564 525.26 526.097 968.134 968.46 968.464 968.469 968.473 968.477
          968.482 968.486 968.491 968.495 968.5 968.502 966.549 968.294 968.298 968.302 968.306 968.31
          968.315 968.32 968.323 967.042 525.128 524.824 525.444 968.017 968.342 968.346 968.35 968.354
          968.358 968.362 968.366 968.37 968.374 968.378 968.381 968.38 968.175 968.179 968.182 968.186
          968.191 968.196 968.201 968.204 966.377 524.693 524.391 524.729 967.791 968.224 968.227 968.23
          968.234 968.238 968.242 968.246 968.25 968.254 968.257 968.26 968.261 968.08 968.083 968.087
          968.091 968.096 968.101 968.107 968.113 967.645 524.338 524.034 524.35 967.788 968.129 968.131
          968.134 968.138 968.141 968.145 968.148 968.152 968.155 968.158 968.16 968.161 967.961 967.965
          967.969 967.974 967.979 967.984 967.99 967.997 967.575 523.89 523.585 523.914 967.687 968.012
          968.014 968.016 968.019 968.022 968.025 968.028 968.031 968.033 968.035 968.037 968.037 967.842
          967.846 967.851 967.856 967.861 967.867 967.873 967.879 967.468 523.441 523.136 523.469 967.569
          967.894 967.896 967.898 967.9 967.902 967.904 967.907 967.909 967.911 967.913 967.914 967.914
          967.722 967.727 967.732 967.737 967.742 967.748 967.754 967.761 967.34 522.993 522.689 523.015
          967.45 967.776 967.777 967.778 967.78 967.782 967.784 967.786 967.788 967.789 967.791 967.791
          967.792 967.603 967.608 967.613 967.618 967.623 967.629 967.635 967.642 967.245 522.781 522.557
          522.794 967.39 967.657 967.657 967.659 967.66 967.661 967.663 967.665 967.666 967.668 967.669
          967.669 967.67 967.484 967.49 967.495 967.499 967.504 967.509 967.515 967.522 967.447 967.204
          967.156 967.234 967.456 967.537 967.538 967.539 967.54 967.541 967.542 967.544 967.545 967.546
          967.547 967.548 967.548 967.365 967.373 967.376 967.38 967.384 967.389 967.395 967.401 967.407
          967.411 967.415 967.416 967.417 967.417 967.417 967.418 967.419 967.421 967.422 967.423 967.424
          967.425 967.426 967.427 967.427 967.268 967.255 967.256 967.259 967.264 967.269 967.274 967.28
          967.286 967.29 967.294 967.295 967.296 967.296 967.297 967.298 967.299 967.3 967.301 967.302
          967.304 967.305 967.305 967.306 967.306
        </DataArray>
        <DataArray type="Float32" Name="saturation_l" NumberOfComponents="1" format="ascii">
          1 1 1 1 1 1 1 1 1 1 1 1
          1 1 1 1 1 1 1 1 1 1 1 1
          1 1 1 1 1 1 1 1 1 1 1 1
          1 1 1 1 1 1 1 1 1 1 1 1
          1 1 1 1 1 1 1 1 1 1 1 1
          1 1 1 1 1 1 1 1 1 1 1 1
          1 1 1 1 1 1 1 1 1 1 1 1
          1 1 1 1 1 1 1 1 1 1 1 1
          1 1 1 1 1 1 1 1 1 1 1 1
          1 1 1 1 1 1 1 1 1 1 1 1
          1 1 1 1 1 1 1 1 1 1 1 1
          1 1 1 1 1 1 1 1 1 1 1 1
          1 1 1 1 1 1 1 1 1 1 1 1
          1 1 1 1 1 1 1 1 1 1 1 1
          1 1 1 1 1 1 1 1 1 1 1 1
          1 1 1 1 1 1 1 1 1 1 1 1
          1 1 1 1 1 1 1 1 1 1 1 1
          1 1 1 1 1 1 1 1 1 1 1 1
          1 1 1 1 1 1 1 1 1 1 1 1
          1 1 1 1 1 1 1 1 1 1 1 1
          1 1 1 1 1 1 1 1 1 1 1 1
          1 1 1 1 1 1 1 1 1 1 1 1
          1 1 1 1 1 1 1 1 1 1 1 1
          1 1 1 1 1 1 1 1 1 1 1 1
          1 1 1 1 1 1 1 1 1 1 1 1
          1 1 1 1 1 1 1 1 1 1 1 1
          1 1 1 1 1 1 1 1 1 1 1 1
          1 1 1 1 1 1 1 1 1 1 1 1
          1 1 1 1 1 1 1 1 1 1 1 1
          1 1 1 1 1 1 1 1 1 1 1 1
          1 1 1 1 1 1 1 1 1 1 1 1
          1 1 1 1 1 1 1 1 1 1 1 1
          1 1 1 1 1 1 1 1 1 1 1 1
          1 1 1 1 1 1 1 1 1 1 1 1
          1 1 1 1 1 1 1 1 1 1 1 1
          1 1 1 1 1
        </DataArray>
        <DataArray type="Float32" Name="saturation_g" NumberOfComponents="1" format="ascii">
          0 0 0 0 0 0 0 0 0 0 0 0
          0 0 0 0 0 0 0 0 0 0 0 0
          0 0 0 0 0 0 0 0 0 0 0 0
          0 0 0 0 0 0 0 0 0 0 0 0
          0 0 0 0 0 0 0 0 0 0 0 0
          0 0 0 0 0 0 0 0 0 0 0 0
          0 0 0 0 0 0 0 0 0 0 0 0
          0 0 0 0 0 0 0 0 0 0 0 0
          0 0 0 0 0 0 0 0 0 0 0 0
          0 0 0 0 0 0 0 0 0 0 0 0
          0 0 0 0 0 0 0 0 0 0 0 0
          0 0 0 0 0 0 0 0 0 0 0 0
          0 0 0 0 0 0 0 0 0 0 0 0
          0 0 0 0 0 0 0 0 0 0 0 0
          0 0 0 0 0 0 0 0 0 0 0 0
          0 0 0 0 0 0 0 0 0 0 0 0
          0 0 0 0 0 0 0 0 0 0 0 0
          0 0 0 0 0 0 0 0 0 0 0 0
          0 0 0 0 0 0 0 0 0 0 0 0
          0 0 0 0 0 0 0 0 0 0 0 0
          0 0 0 0 0 0 0 0 0 0 0 0
          0 0 0 0 0 0 0 0 0 0 0 0
          0 0 0 0 0 0 0 0 0 0 0 0
          0 0 0 0 0 0 0 0 0 0 0 0
          0 0 0 0 0 0 0 0 0 0 0 0
          0 0 0 0 0 0 0 0 0 0 0 0
          0 0 0 0 0 0 0 0 0 0 0 0
          0 0 0 0 0 0 0 0 0 0 0 0
          0 0 0 0 0 0 0 0 0 0 0 0
          0 0 0 0 0 0 0 0 0 0 0 0
          0 0 0 0 0 0 0 0 0 0 0 0
          0 0 0 0 0 0 0 0 0 0 0 0
          0 0 0 0 0 0 0 0 0 0 0 0
          0 0 0 0 0 0 0 0 0 0 0 0
          0 0 0 0 0 0 0 0 0 0 0 0
          0 0 0 0 0
        </DataArray>
        <DataArray type="Float32" Name="relativePerm_l" NumberOfComponents="1" format="ascii">
          1 1 1 1 1 1 1 1 1 1 1 1
          1 1 1 1 1 1 1 1 1 1 1 1
          1 1 1 1 1 1 1 1 1 1 1 1
          1 1 1 1 1 1 1 1 1 1 1 1
          1 1 1 1 1 1 1 1 1 1 1 1
          1 1 1 1 1 1 1 1 1 1 1 1
          1 1 1 1 1 1 1 1 1 1 1 1
          1 1 1 1 1 1 1 1 1 1 1 1
          1 1 1 1 1 1 1 1 1 1 1 1
          1 1 1 1 1 1 1 1 1 1 1 1
          1 1 1 1 1 1 1 1 1 1 1 1
          1 1 1 1 1 1 1 1 1 1 1 1
          1 1 1 1 1 1 1 1 1 1 1 1
          1 1 1 1 1 1 1 1 1 1 1 1
          1 1 1 1 1 1 1 1 1 1 1 1
          1 1 1 1 1 1 1 1 1 1 1 1
          1 1 1 1 1 1 1 1 1 1 1 1
          1 1 1 1 1 1 1 1 1 1 1 1
          1 1 1 1 1 1 1 1 1 1 1 1
          1 1 1 1 1 1 1 1 1 1 1 1
          1 1 1 1 1 1 1 1 1 1 1 1
          1 1 1 1 1 1 1 1 1 1 1 1
          1 1 1 1 1 1 1 1 1 1 1 1
          1 1 1 1 1 1 1 1 1 1 1 1
          1 1 1 1 1 1 1 1 1 1 1 1
          1 1 1 1 1 1 1 1 1 1 1 1
          1 1 1 1 1 1 1 1 1 1 1 1
          1 1 1 1 1 1 1 1 1 1 1 1
          1 1 1 1 1 1 1 1 1 1 1 1
          1 1 1 1 1 1 1 1 1 1 1 1
          1 1 1 1 1 1 1 1 1 1 1 1
          1 1 1 1 1 1 1 1 1 1 1 1
          1 1 1 1 1 1 1 1 1 1 1 1
          1 1 1 1 1 1 1 1 1 1 1 1
          1 1 1 1 1 1 1 1 1 1 1 1
          1 1 1 1 1
        </DataArray>
        <DataArray type="Float32" Name="relativePerm_g" NumberOfComponents="1" format="ascii">
          0 0 0 0 0 0 0 0 0 0 0 0
          0 0 0 0 0 0 0 0 0 0 0 0
          0 0 0 0 0 0 0 0 0 0 0 0
          0 0 0 0 0 0 0 0 0 0 0 0
          0 0 0 0 0 0 0 0 0 0 0 0
          0 0 0 0 0 0 0 0 0 0 0 0
          0 0 0 0 0 0 0 0 0 0 0 0
          0 0 0 0 0 0 0 0 0 0 0 0
          0 0 0 0 0 0 0 0 0 0 0 0
          0 0 0 0 0 0 0 0 0 0 0 0
          0 0 0 0 0 0 0 0 0 0 0 0
          0 0 0 0 0 0 0 0 0 0 0 0
          0 0 0 0 0 0 0 0 0 0 0 0
          0 0 0 0 0 0 0 0 0 0 0 0
          0 0 0 0 0 0 0 0 0 0 0 0
          0 0 0 0 0 0 0 0 0 0 0 0
          0 0 0 0 0 0 0 0 0 0 0 0
          0 0 0 0 0 0 0 0 0 0 0 0
          0 0 0 0 0 0 0 0 0 0 0 0
          0 0 0 0 0 0 0 0 0 0 0 0
          0 0 0 0 0 0 0 0 0 0 0 0
          0 0 0 0 0 0 0 0 0 0 0 0
          0 0 0 0 0 0 0 0 0 0 0 0
          0 0 0 0 0 0 0 0 0 0 0 0
          0 0 0 0 0 0 0 0 0 0 0 0
          0 0 0 0 0 0 0 0 0 0 0 0
          0 0 0 0 0 0 0 0 0 0 0 0
          0 0 0 0 0 0 0 0 0 0 0 0
          0 0 0 0 0 0 0 0 0 0 0 0
          0 0 0 0 0 0 0 0 0 0 0 0
          0 0 0 0 0 0 0 0 0 0 0 0
          0 0 0 0 0 0 0 0 0 0 0 0
          0 0 0 0 0 0 0 0 0 0 0 0
          0 0 0 0 0 0 0 0 0 0 0 0
          0 0 0 0 0 0 0 0 0 0 0 0
          0 0 0 0 0
        </DataArray>
        <DataArray type="Float32" Name="porosity" NumberOfComponents="1" format="ascii">
          0.3 0.3 0.3 0.3 0.3 0.3 0.3 0.3 0.3 0.3 0.3 0.3
          0.3 0.3 0.3 0.3 0.3 0.3 0.3 0.3 0.3 0.3 0.3 0.3
          0.3 0.3 0.3 0.3 0.3 0.3 0.3 0.3 0.3 0.3 0.3 0.3
          0.3 0.3 0.3 0.3 0.3 0.3 0.3 0.3 0.3 0.3 0.3 0.3
          0.3 0.3 0.3 0.3 0.3 0.3 0.3 0.3 0.3 0.3 0.3 0.3
          0.3 0.3 0.3 0.3 0.3 0.3 0.3 0.3 0.3 0.3 0.3 0.3
          0.3 0.3 0.3 0.3 0.3 0.3 0.3 0.3 0.3 0.3 0.3 0.3
          0.3 0.3 0.3 0.3 0.3 0.3 0.3 0.3 0.3 0.3 0.3 0.3
          0.3 0.3 0.3 0.3 0.3 0.3 0.3 0.3 0.3 0.3 0.3 0.3
          0.3 0.3 0.3 0.3 0.3 0.3 0.3 0.3 0.3 0.3 0.3 0.3
          0.3 0.3 0.3 0.3 0.3 0.3 0.3 0.3 0.3 0.3 0.3 0.3
          0.3 0.3 0.3 0.3 0.3 0.3 0.3 0.3 0.3 0.3 0.3 0.3
          0.3 0.3 0.3 0.3 0.3 0.3 0.3 0.3 0.3 0.3 0.3 0.3
          0.3 0.3 0.3 0.3 0.3 0.3 0.3 0.3 0.3 0.3 0.3 0.3
          0.3 0.3 0.3 0.3 0.3 0.3 0.3 0.3 0.3 0.3 0.3 0.3
          0.3 0.3 0.3 0.3 0.3 0.3 0.3 0.3 0.3 0.3 0.3 0.3
          0.3 0.3 0.3 0.3 0.3 0.3 0.3 0.3 0.3 0.3 0.3 0.3
          0.3 0.3 0.3 0.3 0.3 0.3 0.3 0.3 0.3 0.3 0.3 0.3
          0.3 0.3 0.3 0.3 0.3 0.3 0.3 0.3 0.3 0.3 0.3 0.3
          0.3 0.3 0.3 0.3 0.3 0.3 0.3 0.3 0.3 0.3 0.3 0.3
          0.3 0.3 0.3 0.3 0.3 0.3 0.3 0.3 0.3 0.3 0.3 0.3
          0.3 0.3 0.3 0.3 0.3 0.3 0.3 0.3 0.3 0.3 0.3 0.3
          0.3 0.3 0.3 0.3 0.3 0.3 0.3 0.3 0.3 0.3 0.3 0.3
          0.3 0.3 0.3 0.3 0.3 0.3 0.3 0.3 0.3 0.3 0.3 0.3
          0.3 0.3 0.3 0.3 0.3 0.3 0.3 0.3 0.3 0.3 0.3 0.3
          0.3 0.3 0.3 0.3 0.3 0.3 0.3 0.3 0.3 0.3 0.3 0.3
          0.3 0.3 0.3 0.3 0.3 0.3 0.3 0.3 0.3 0.3 0.3 0.3
          0.3 0.3 0.3 0.3 0.3 0.3 0.3 0.3 0.3 0.3 0.3 0.3
          0.3 0.3 0.3 0.3 0.3 0.3 0.3 0.3 0.3 0.3 0.3 0.3
          0.3 0.3 0.3 0.3 0.3 0.3 0.3 0.3 0.3 0.3 0.3 0.3
          0.3 0.3 0.3 0.3 0.3 0.3 0.3 0.3 0.3 0.3 0.3 0.3
          0.3 0.3 0.3 0.3 0.3 0.3 0.3 0.3 0.3 0.3 0.3 0.3
          0.3 0.3 0.3 0.3 0.3 0.3 0.3 0.3 0.3 0.3 0.3 0.3
          0.3 0.3 0.3 0.3 0.3 0.3 0.3 0.3 0.3 0.3 0.3 0.3
          0.3 0.3 0.3 0.3 0.3 0.3 0.3 0.3 0.3 0.3 0.3 0.3
          0.3 0.3 0.3 0.3 0.3
        </DataArray>
        <DataArray type="Float32" Name="moleFrac_l^Brine" NumberOfComponents="1" format="ascii">
          1 1 1 1 1 1 1 1 1 1 1 1
          1 1 1 1 1 1 1 1 1 1 1 1
          1 1 1 1 1 1 1 1 1 1 1 1
          1 1 1 1 1 1 1 1 1 1 1 1
          1 0.999983 1 1 1 1 1 1 1 1 1 1
          1 1 1 1 1 1 1 1 1 1 1 1
          1 0.999983 0.994562 1 1 1 1 1 1 1 1 1
          1 1 1 1 1 1 1 1 1 1 1 1
          1 1 0.999947 0.989172 1 1 1 1 1 1 1 1
          1 1 1 1 1 1 1 1 1 1 1 1
          1 1 1 0.999943 0.989171 1 1 1 1 1 1 1
          1 1 1 1 1 1 1 1 1 1 1 1
          1 1 1 1 0.999948 0.989171 1 1 1 1 1 1
          1 1 1 1 1 1 1 1 1 1 1 1
          1 1 1 1 1 0.999984 0.994561 1 1 1 1 1
          1 1 1 1 1 1 1 1 1 1 1 1
          1 1 1 1 1 1 1 0.999981 1 1 1 1
          1 1 1 1 1 1 1 1 1 1 1 1
          1 1 1 1 1 1 1 1 1 1 1 1
          1 1 1 1 1 1 1 1 1 1 1 1
          1 1 1 1 1 1 1 1 1 1 1 1
          1 1 1 1 1 1 1 1 1 1 1 1
          1 1 1 1 1 1 1 1 1 1 1 1
          1 1 1 1 1 1 1 1 1 1 1 1
          1 1 1 1 1 1 1 1 1 1 1 1
          1 1 1 1 1 1 1 1 1 1 1 1
          1 1 1 1 1 1 1 1 1 1 1 1
          1 1 1 1 1 1 1 1 1 1 1 1
          1 1 1 1 1 1 1 1 1 1 1 1
          1 1 1 1 1 1 1 1 1 1 1 1
          1 1 1 1 1 1 1 1 1 1 1 1
          1 1 1 1 1 1 1 1 1 1 1 1
          1 1 1 1 1 1 1 1 1 1 1 1
          1 1 1 1 1 1 1 1 1 1 1 1
          1 1 1 1 1 1 1 1 1 1 1 1
          1 1 1 1 1
        </DataArray>
        <DataArray type="Float32" Name="moleFrac_l^CO2" NumberOfComponents="1" format="ascii">
          0 0 0 0 0 0 0 0 0 0 0 0
          0 0 0 0 0 0 0 0 0 0 0 0
          0 2.31811e-38 0 1.26335e-35 6.29562e-36 6.89346e-33 3.44826e-33 3.76807e-30 1.91724e-30 2.11451e-27 1.09781e-27 1.21925e-24
          6.44848e-25 7.16396e-22 3.84387e-22 4.23534e-19 2.29331e-19 2.47985e-16 1.34727e-16 1.41003e-13 7.63405e-14 7.58774e-11 4.04486e-11 3.73095e-08
          2.06248e-08 1.70309e-05 0 0 0 0 0 0 0 0 0 0
          0 2.97107e-38 1.342e-35 6.67679e-33 3.6082e-30 2.05896e-27 1.21573e-24 7.30479e-22 4.39682e-19 2.60766e-16 1.49468e-13 8.0753e-11
          3.96737e-08 1.67297e-05 0.00543825 0 0 0 0 0 0 0 0 0
          0 0 1.72382e-37 5.81245e-35 2.7939e-32 1.52475e-29 8.90726e-27 5.39369e-24 3.31268e-21 2.026e-18 1.20973e-15 6.87031e-13
          3.56538e-10 1.58069e-07 5.31354e-05 0.0108284 0 0 0 0 0 0 0 0
          0 0 0 1.11162e-37 4.89368e-35 2.58155e-32 1.50516e-29 9.27863e-27 5.86965e-24 3.73307e-21 2.34606e-18 1.4287e-15
          8.19844e-13 4.2355e-10 1.82149e-07 5.70798e-05 0.0108286 0 0 0 0 0 0 0
          0 0 0 0 3.47887e-38 2.00043e-35 1.2717e-32 8.38376e-30 5.63197e-27 3.79235e-24 2.52925e-21 1.65215e-18
          1.04168e-15 6.19516e-13 3.3422e-10 1.52778e-07 5.24618e-05 0.0108287 0 0 0 0 0 0
          0 0 0 0 0 0 1.70797e-36 1.3824e-33 1.07589e-30 8.05969e-28 5.84652e-25 4.12035e-22
          2.81892e-19 1.86146e-16 1.17172e-13 6.87585e-11 3.6233e-08 1.61141e-05 0.00543924 0 0 0 0 0
          0 0 0 0 0 0 0 0 1.41945e-36 1.3411e-33 1.12988e-30 8.88306e-28
          6.6774e-25 4.86195e-22 3.45308e-19 2.32776e-16 1.46367e-13 8.40395e-11 4.24005e-08 1.90681e-05 0 0 0 0
          0 0 0 0 0 0 0 0 0 0 7.4264e-37 6.93268e-34
          5.85612e-31 4.67134e-28 3.60383e-25 2.72119e-22 1.93315e-19 1.27763e-16 7.76745e-14 4.22337e-11 2.12145e-08 0 0 0
          0 0 0 0 0 0 0 0 0 0 0 0
          0 3.11786e-38 2.79649e-34 2.41924e-30 8.87463e-27 1.23036e-23 1.25996e-20 1.06448e-17 7.35677e-15 4.29459e-12 0 0
          0 0 0 0 0 0 0 0 0 0 0 0
          0 0 0 0 3.43705e-35 2.71081e-31 6.6171e-28 9.81925e-25 1.07729e-21 8.89191e-19 5.75877e-16 0