<?xml version="1.0"?>
<VTKFile type="UnstructuredGrid" version="0.1" byte_order="LittleEndian">
  <UnstructuredGrid>
    <Piece NumberOfCells="384" NumberOfPoints="425">
      <PointData Scalars="pressure_l">
        <DataArray type="Float32" Name="pressure_l" NumberOfComponents="1" format="ascii">
          2.63166e+07 2.63219e+07 2.62952e+07 2.6296e+07 2.6324e+07 2.62977e+07 2.63256e+07 2.62992e+07 2.63269e+07 2.63005e+07 2.63281e+07 2.63017e+07
          2.63292e+07 2.63028e+07 2.63301e+07 2.63037e+07 2.6331e+07 2.63045e+07 2.63318e+07 2.63052e+07 2.63328e+07 2.63061e+07 2.63339e+07 2.63073e+07
          2.63353e+07 2.63088e+07 2.63369e+07 2.63104e+07 2.63385e+07 2.6312e+07 2.634e+07 2.63136e+07 2.63416e+07 2.63151e+07 2.63431e+07 2.63166e+07
          2.63445e+07 2.63181e+07 2.6346e+07 2.63195e+07 2.63474e+07 2.6321e+07 2.63488e+07 2.63224e+07 2.635e+07 2.63237e+07 2.6351e+07 2.63248e+07
          2.63513e+07 2.63252e+07 2.62693e+07 2.62703e+07 2.62716e+07 2.62729e+07 2.62742e+07 2.62754e+07 2.62765e+07 2.62774e+07 2.62782e+07 2.62785e+07
          2.62792e+07 2.62803e+07 2.62822e+07 2.62839e+07 2.62856e+07 2.62871e+07 2.62886e+07 2.62901e+07 2.62916e+07 2.62931e+07 2.62945e+07 2.6296e+07
          2.62975e+07 2.6299e+07 2.63006e+07 2.62431e+07 2.62442e+07 2.62455e+07 2.62467e+07 2.6248e+07 2.62492e+07 2.62503e+07 2.62514e+07 2.62522e+07
          2.62523e+07 2.62527e+07 2.62532e+07 2.62557e+07 2.62575e+07 2.62592e+07 2.62607e+07 2.62622e+07 2.62637e+07 2.62651e+07 2.62666e+07 2.62681e+07
          2.62696e+07 2.62713e+07 2.62732e+07 2.62762e+07 2.62169e+07 2.62181e+07 2.62193e+07 2.62206e+07 2.62218e+07 2.62231e+07 2.62243e+07 2.62255e+07
          2.62265e+07 2.62269e+07 2.62273e+07 2.62278e+07 2.62296e+07 2.62313e+07 2.62329e+07 2.62344e+07 2.62358e+07 2.62372e+07 2.62387e+07 2.62401e+07
          2.62416e+07 2.62432e+07 2.62449e+07 2.6247e+07 2.62501e+07 2.61907e+07 2.61919e+07 2.61931e+07 2.61944e+07 2.61957e+07 2.6197e+07 2.61983e+07
          2.61996e+07 2.6201e+07 2.62014e+07 2.62018e+07 2.62023e+07 2.62038e+07 2.62053e+07 2.62067e+07 2.62081e+07 2.62094e+07 2.62108e+07 2.62122e+07
          2.62136e+07 2.6215e+07 2.62165e+07 2.62182e+07 2.622e+07 2.6223e+07 2.61644e+07 2.61656e+07 2.61669e+07 2.61682e+07 2.61695e+07 2.61709e+07
          2.61723e+07 2.61738e+07 2.61754e+07 2.61759e+07 2.61764e+07 2.61768e+07 2.6178e+07 2.61792e+07 2.61805e+07 2.61818e+07 2.61831e+07 2.61844e+07
          2.61857e+07 2.61871e+07 2.61884e+07 2.61898e+07 2.61912e+07 2.61926e+07 2.61942e+07 2.61382e+07 2.61394e+07 2.61406e+07 2.61419e+07 2.61433e+07
          2.61447e+07 2.61463e+07 2.6148e+07 2.61498e+07 2.61504e+07 2.61509e+07 2.61513e+07 2.61522e+07 2.61532e+07 2.61543e+07 2.61554e+07 2.61567e+07
          2.61579e+07 2.61592e+07 2.61605e+07 2.61618e+07 2.6163e+07 2.61642e+07 2.61652e+07 2.61656e+07 2.6112e+07 2.61131e+07 2.61143e+07 2.61156e+07
          2.6117e+07 2.61184e+07 2.61201e+07 2.61219e+07 2.61241e+07 2.61251e+07 2.61257e+07 2.6126e+07 2.61262e+07 2.6127e+07 2.6128e+07 2.61291e+07
          2.61302e+07 2.61315e+07 2.61327e+07 2.61339e+07 2.61352e+07 2.61363e+07 2.61373e+07 2.6138e+07 2.61383e+07 2.60857e+07 2.60869e+07 2.60881e+07
          2.60895e+07 2.60909e+07 2.60925e+07 2.60942e+07 2.60961e+07 2.60984e+07 2.60993e+07 2.60999e+07 2.61003e+07 2.61004e+07 2.6101e+07 2.61018e+07
          2.61028e+07 2.61039e+07 2.6105e+07 2.61061e+07 2.61073e+07 2.61083e+07 2.61093e+07 2.61102e+07 2.61107e+07 2.6111e+07 2.60596e+07 2.60608e+07
          2.60622e+07 2.60636e+07 2.60651e+07 2.60667e+07 2.60685e+07 2.60704e+07 2.60725e+07 2.60732e+07 2.60737e+07 2.6074e+07 2.60746e+07 2.60752e+07
          2.60759e+07 2.60767e+07 2.60776e+07 2.60786e+07 2.60795e+07 2.60804e+07 2.60813e+07 2.60821e+07 2.60827e+07 2.60832e+07 2.60833e+07 2.60334e+07
          2.60348e+07 2.60362e+07 2.60376e+07 2.60392e+07 2.60408e+07 2.60426e+07 2.60446e+07 2.60466e+07 2.60472e+07 2.60477e+07 2.60481e+07 2.60487e+07
          2.60492e+07 2.60498e+07 2.60505e+07 2.60513e+07 2.60521e+07 2.60529e+07 2.60537e+07 2.60544e+07 2.6055e+07 2.60555e+07 2.60558e+07 2.6056e+07
          2.60072e+07 2.60086e+07 2.60101e+07 2.60116e+07 2.60132e+07 2.60148e+07 2.60166e+07 2.60186e+07 2.60207e+07 2.60214e+07 2.60219e+07 2.60223e+07
          2.60227e+07 2.60232e+07 2.60237e+07 2.60243e+07 2.60249e+07 2.60256e+07 2.60263e+07 2.6027e+07 2.60276e+07 2.60281e+07 2.60285e+07 2.60287e+07
          2.60288e+07 2.5981e+07 2.59825e+07 2.5984e+07 2.59855e+07 2.59871e+07 2.59887e+07 2.59904e+07 2.59924e+07 2.59948e+07 2.59957e+07 2.59964e+07
          2.59967e+07 2.59968e+07 2.59971e+07 2.59975e+07 2.5998e+07 2.59985e+07 2.59991e+07 2.59997e+07 2.60003e+07 2.60008e+07 2.60013e+07 2.60016e+07
          2.60018e+07 2.60019e+07 2.59548e+07 2.59565e+07 2.5958e+07 2.59594e+07 2.59608e+07 2.59624e+07 2.59641e+07 2.59659e+07 2.59677e+07 2.59696e+07
          2.59704e+07 2.59708e+07 2.59706e+07 2.59708e+07 2.59712e+07 2.59716e+07 2.59721e+07 2.59726e+07 2.59732e+07 2.59737e+07 2.59742e+07 2.59746e+07
          2.59748e+07 2.5975e+07 2.59751e+07 2.59288e+07 2.59308e+07 2.59319e+07 2.59331e+07 2.59345e+07 2.59361e+07 2.59377e+07 2.59393e+07 2.59409e+07
          2.59423e+07 2.59433e+07 2.59438e+07 2.59441e+07 2.59444e+07 2.59448e+07 2.59452e+07 2.59457e+07 2.59462e+07 2.59467e+07 2.59471e+07 2.59476e+07
          2.59479e+07 2.59482e+07 2.59484e+07 2.59484e+07 2.59075e+07 2.59049e+07 2.59056e+07 2.59067e+07 2.59081e+07 2.59096e+07 2.59112e+07 2.59128e+07
          2.59143e+07 2.59156e+07 2.59166e+07 2.59172e+07 2.59176e+07 2.5918e+07 2.59183e+07 2.59187e+07 2.59192e+07 2.59197e+07 2.59202e+07 2.59206e+07
          2.5921e+07 2.59214e+07 2.59217e+07 2.59218e+07 2.59219e+07
        </DataArray>
        <DataArray type="Float32" Name="pressure_g" NumberOfComponents="1" format="ascii">
          2.63216e+07 2.63269e+07 2.63002e+07 2.6301e+07 2.6329e+07 2.63027e+07 2.63306e+07 2.63042e+07 2.63319e+07 2.63055e+07 2.63331e+07 2.63067e+07
          2.63342e+07 2.63078e+07 2.63351e+07 2.63087e+07 2.6336e+07 2.63095e+07 2.63368e+07 2.63102e+07 2.63378e+07 2.63111e+07 2.63389e+07 2.63123e+07
          2.63403e+07 2.63138e+07 2.63419e+07 2.63154e+07 2.63435e+07 2.6317e+07 2.6345e+07 2.63186e+07 2.63466e+07 2.63201e+07 2.63481e+07 2.63216e+07
          2.63495e+07 2.63231e+07 2.6351e+07 2.63245e+07 2.63524e+07 2.6326e+07 2.63538e+07 2.63274e+07 2.6355e+07 2.63287e+07 2.6356e+07 2.63298e+07
          2.63563e+07 2.63302e+07 2.62743e+07 2.62753e+07 2.62766e+07 2.62779e+07 2.62792e+07 2.62804e+07 2.62815e+07 2.62824e+07 2.62832e+07 2.62835e+07
          2.62842e+07 2.62853e+07 2.62872e+07 2.62889e+07 2.62906e+07 2.62921e+07 2.62936e+07 2.62951e+07 2.62966e+07 2.62981e+07 2.62995e+07 2.6301e+07
          2.63025e+07 2.6304e+07 2.63057e+07 2.62481e+07 2.62492e+07 2.62505e+07 2.62517e+07 2.6253e+07 2.62542e+07 2.62553e+07 2.62564e+07 2.62572e+07
          2.62573e+07 2.62577e+07 2.62582e+07 2.62607e+07 2.62625e+07 2.62642e+07 2.62657e+07 2.62672e+07 2.62687e+07 2.62701e+07 2.62716e+07 2.62731e+07
          2.62746e+07 2.62763e+07 2.62782e+07 2.62813e+07 2.62219e+07 2.62231e+07 2.62243e+07 2.62256e+07 2.62268e+07 2.62281e+07 2.62293e+07 2.62305e+07
          2.62315e+07 2.62319e+07 2.62323e+07 2.62328e+07 2.62346e+07 2.62363e+07 2.62379e+07 2.62394e+07 2.62408e+07 2.62422e+07 2.62437e+07 2.62451e+07
          2.62466e+07 2.62482e+07 2.62499e+07 2.6252e+07 2.62552e+07 2.61957e+07 2.61969e+07 2.61981e+07 2.61994e+07 2.62007e+07 2.6202e+07 2.62033e+07
          2.62046e+07 2.6206e+07 2.62064e+07 2.62068e+07 2.62073e+07 2.62088e+07 2.62103e+07 2.62117e+07 2.62131e+07 2.62144e+07 2.62158e+07 2.62172e+07
          2.62186e+07 2.622e+07 2.62215e+07 2.62232e+07 2.6225e+07 2.62281e+07 2.61694e+07 2.61706e+07 2.61719e+07 2.61732e+07 2.61745e+07 2.61759e+07
          2.61773e+07 2.61788e+07 2.61804e+07 2.61809e+07 2.61814e+07 2.61818e+07 2.6183e+07 2.61842e+07 2.61855e+07 2.61868e+07 2.61881e+07 2.61894e+07
          2.61907e+07 2.61921e+07 2.61934e+07 2.61948e+07 2.61962e+07 2.61976e+07 2.61993e+07 2.61432e+07 2.61444e+07 2.61456e+07 2.61469e+07 2.61483e+07
          2.61497e+07 2.61513e+07 2.6153e+07 2.61548e+07 2.61554e+07 2.61559e+07 2.61563e+07 2.61572e+07 2.61582e+07 2.61593e+07 2.61604e+07 2.61617e+07
          2.61629e+07 2.61642e+07 2.61655e+07 2.61668e+07 2.6168e+07 2.61692e+07 2.61702e+07 2.61706e+07 2.6117e+07 2.61181e+07 2.61193e+07 2.61206e+07
          2.6122e+07 2.61234e+07 2.61251e+07 2.61269e+07 2.61291e+07 2.61301e+07 2.61307e+07 2.6131e+07 2.61312e+07 2.6132e+07 2.6133e+07 2.61341e+07
          2.61352e+07 2.61365e+07 2.61377e+07 2.61389e+07 2.61402e+07 2.61413e+07 2.61423e+07 2.6143e+07 2.61433e+07 2.60957e+07 2.60969e+07 2.60981e+07
          2.60995e+07 2.61009e+07 2.61025e+07 2.61042e+07 2.61061e+07 2.61084e+07 2.61093e+07 2.61099e+07 2.61103e+07 2.61104e+07 2.6111e+07 2.61118e+07
          2.61128e+07 2.61139e+07 2.6115e+07 2.61161e+07 2.61173e+07 2.61183e+07 2.61193e+07 2.61202e+07 2.61207e+07 2.6121e+07 2.60696e+07 2.60708e+07
          2.60722e+07 2.60736e+07 2.60751e+07 2.60767e+07 2.60785e+07 2.60804e+07 2.60825e+07 2.60832e+07 2.60837e+07 2.6084e+07 2.60846e+07 2.60852e+07
          2.60859e+07 2.60867e+07 2.60876e+07 2.60886e+07 2.60895e+07 2.60904e+07 2.60913e+07 2.60921e+07 2.60927e+07 2.60932e+07 2.60933e+07 2.60434e+07
          2.60448e+07 2.60462e+07 2.60476e+07 2.60492e+07 2.60508e+07 2.60526e+07 2.60546e+07 2.60566e+07 2.60572e+07 2.60577e+07 2.60581e+07 2.60587e+07
          2.60592e+07 2.60598e+07 2.60605e+07 2.60613e+07 2.60621e+07 2.60629e+07 2.60637e+07 2.60644e+07 2.6065e+07 2.60655e+07 2.60658e+07 2.6066e+07
          2.60172e+07 2.60186e+07 2.60201e+07 2.60216e+07 2.60232e+07 2.60248e+07 2.60266e+07 2.60286e+07 2.60307e+07 2.60314e+07 2.60319e+07 2.60323e+07
          2.60327e+07 2.60332e+07 2.60337e+07 2.60343e+07 2.60349e+07 2.60356e+07 2.60363e+07 2.6037e+07 2.60376e+07 2.60381e+07 2.60385e+07 2.60387e+07
          2.60388e+07 2.5991e+07 2.59925e+07 2.5994e+07 2.59955e+07 2.59971e+07 2.59987e+07 2.60004e+07 2.60024e+07 2.60048e+07 2.60057e+07 2.60064e+07
          2.60067e+07 2.60068e+07 2.60071e+07 2.60075e+07 2.6008e+07 2.60085e+07 2.60091e+07 2.60097e+07 2.60103e+07 2.60108e+07 2.60113e+07 2.60116e+07
          2.60118e+07 2.60119e+07 2.59648e+07 2.59665e+07 2.5968e+07 2.59694e+07 2.59708e+07 2.59724e+07 2.59741e+07 2.59759e+07 2.59777e+07 2.59796e+07
          2.59804e+07 2.59808e+07 2.59806e+07 2.59808e+07 2.59812e+07 2.59816e+07 2.59821e+07 2.59826e+07 2.59832e+07 2.59837e+07 2.59842e+07 2.59846e+07
          2.59848e+07 2.5985e+07 2.59851e+07 2.59388e+07 2.59408e+07 2.59419e+07 2.59431e+07 2.59445e+07 2.59461e+07 2.59477e+07 2.59493e+07 2.59509e+07
          2.59523e+07 2.59533e+07 2.59538e+07 2.59541e+07 2.59544e+07 2.59548e+07 2.59552e+07 2.59557e+07 2.59562e+07 2.59567e+07 2.59571e+07 2.59576e+07
          2.59579e+07 2.59582e+07 2.59584e+07 2.59584e+07 2.59175e+07 2.59149e+07 2.59156e+07 2.59167e+07 2.59181e+07 2.59196e+07 2.59212e+07 2.59228e+07
          2.59243e+07 2.59256e+07 2.59266e+07 2.59272e+07 2.59276e+07 2.5928e+07 2.59283e+07 2.59287e+07 2.59292e+07 2.59297e+07 2.59302e+07 2.59306e+07
          2.5931e+07 2.59314e+07 2.59317e+07 2.59318e+07 2.59319e+07
        </DataArray>
        <DataArray type="Float32" Name="density_l" NumberOfComponents="1" format="ascii">
          1080.19 1080.19 1080.18 1080.18 1080.19 1080.18 1080.19 1080.18 1080.19 1080.18 1080.19 1080.18
          1080.19 1080.18 1080.19 1080.18 1080.19 1080.18 1080.19 1080.18 1080.2 1080.18 1080.2 1080.18
          1080.2 1080.19 1080.2 1080.19 1080.2 1080.19 1080.2 1080.19 1080.2 1080.19 1080.2 1080.19
          1080.2 1080.19 1080.2 1080.19 1080.2 1080.19 1080.2 1080.19 1080.2 1080.19 1080.2 1080.19
          1080.2 1080.19 1080.17 1080.17 1080.17 1080.17 1080.17 1080.17 1080.17 1080.17 1080.17 1080.17
          1080.17 1080.17 1080.17 1080.17 1080.18 1080.18 1080.18 1080.18 1080.18 1080.18 1080.18 1080.18
          1080.18 1080.18 1080.18 1080.16 1080.16 1080.16 1080.16 1080.16 1080.16 1080.16 1080.16 1080.16
          1017.06 1017.06 1017.06 1080.16 1080.16 1080.16 1080.17 1080.17 1080.17 1080.17 1080.17 1080.17
          1080.17 1080.17 1080.17 1080.17 1080.15 1080.15 1080.15 1080.15 1080.15 1080.15 1080.15 1080.15
          1080.15 1017.05 1017.05 1017.05 1080.15 1080.15 1080.15 1080.15 1080.15 1080.16 1080.16 1080.16
          1080.16 1080.16 1080.16 1080.16 1080.16 1080.14 1080.14 1080.14 1080.14 1080.14 1080.14 1080.14
          1080.14 1080.14 1017.04 1017.04 1017.04 1080.14 1080.14 1080.14 1080.14 1080.14 1080.14 1080.14
          1080.15 1080.15 1080.15 1080.15 1080.15 1080.15 1080.12 1080.12 1080.13 1080.13 1080.13 1080.13
          1080.13 1080.13 1080.13 1017.03 1017.03 1017.03 1080.13 1080.13 1080.13 1080.13 1080.13 1080.13
          1080.13 1080.13 1080.13 1080.14 1080.14 1080.14 1080.14 1080.11 1080.11 1080.11 1080.12 1080.12
          1080.12 1080.12 1080.12 1080.12 1017.02 1017.02 1017.02 1080.12 1080.12 1080.12 1080.12 1080.12
          1080.12 1080.12 1080.12 1080.12 1080.12 1080.12 1080.12 1080.12 1080.1 1080.1 1080.1 1080.1
          1080.1 1080.11 1080.11 1080.11 1080.11 1017.01 1017.01 1017.01 1080.11 1080.11 1080.11 1080.11
          1080.11 1080.11 1080.11 1080.11 1080.11 1080.11 1080.11 1080.11 1080.11 1080.09 1080.09 1080.09
          1080.09 1080.09 1080.09 1080.09 1080.1 1080.1 1017 1017 1017 1080.1 1080.1 1080.1
          1080.1 1080.1 1080.1 1080.1 1080.1 1080.1 1080.1 1080.1 1080.1 1080.1 1080.08 1080.08
          1080.08 1080.08 1080.08 1080.08 1080.08 1080.09 1080.09 1016.99 1016.99 1016.99 1080.09 1080.09
          1080.09 1080.09 1080.09 1080.09 1080.09 1080.09 1080.09 1080.09 1080.09 1080.09 1080.09 1080.07
          1080.07 1080.07 1080.07 1080.07 1080.07 1080.07 1080.07 1080.08 1016.98 1016.98 1016.98 1080.08
          1080.08 1080.08 1080.08 1080.08 1080.08 1080.08 1080.08 1080.08 1080.08 1080.08 1080.08 1080.08
          1080.06 1080.06 1080.06 1080.06 1080.06 1080.06 1080.06 1080.06 1080.06 1016.97 1016.97 1016.97
          1080.07 1080.07 1080.07 1080.07 1080.07 1080.07 1080.07 1080.07 1080.07 1080.07 1080.07 1080.07
          1080.07 1080.05 1080.05 1080.05 1080.05 1080.05 1080.05 1080.05 1080.05 1080.05 1016.96 1016.96
          1016.96 1080.05 1080.05 1080.05 1080.05 1080.05 1080.06 1080.06 1080.06 1080.06 1080.06 1080.06
          1080.06 1080.06 1080.04 1080.04 1080.04 1080.04 1080.04 1080.04 1080.04 1080.04 1080.04 1080.04
          1080.04 1080.04 1080.04 1080.04 1080.04 1080.04 1080.04 1080.04 1080.04 1080.04 1080.04 1080.04
          1080.04 1080.04 1080.05 1080.03 1080.03 1080.03 1080.03 1080.03 1080.03 1080.03 1080.03 1080.03
          1080.03 1080.03 1080.03 1080.03 1080.03 1080.03 1080.03 1080.03 1080.03 1080.03 1080.03 1080.03
          1080.03 1080.03 1080.03 1080.03 1080.02 1080.02 1080.02 1080.02 1080.02 1080.02 1080.02 1080.02
          1080.02 1080.02 1080.02 1080.02 1080.02 1080.02 1080.02 1080.02 1080.02 1080.02 1080.02 1080.02
          1080.02 1080.02 1080.02 1080.02 1080.02
        </DataArray>
        <DataArray type="Float32" Name="density_g" NumberOfComponents="1" format="ascii">
          969.1 969.124 969.004 969.008 969.133 969.015 969.141 969.022 969.147 969.028 969.152 969.033
          969.157 969.038 969.161 969.042 969.165 969.046 969.169 969.049 969.173 969.053 969.178 969.059
          969.185 969.065 969.192 969.072 969.199 969.08 969.206 969.087 969.213 969.094 969.219 969.1
          969.226 969.107 969.232 969.113 969.239 969.12 969.245 969.126 969.251 969.132 969.255 969.137
          969.256 969.139 968.888 968.892 968.898 968.904 968.91 968.915 968.92 968.924 968.928 968.929
          968.932 968.937 968.946 968.953 968.961 968.968 968.975 968.981 968.988 968.995 969.001 969.008
          969.015 969.021 969.029 968.769 968.774 968.78 968.786 968.791 968.797 968.802 968.807 968.81
          526.62 526.627 526.636 968.826 968.835 968.842 968.849 968.856 968.862 968.869 968.876 968.882
          968.889 968.897 968.905 968.919 968.651 968.656 968.662 968.667 968.673 968.679 968.684 968.689
          968.694 526.186 526.193 526.201 968.708 968.716 968.723 968.73 968.736 968.743 968.749 968.756
          968.762 968.769 968.777 968.787 968.801 968.532 968.537 968.543 968.549 968.555 968.561 968.567
          968.573 968.579 525.749 525.757 525.764 968.591 968.598 968.604 968.611 968.617 968.623 968.629
          968.636 968.642 968.649 968.656 968.665 968.679 968.413 968.419 968.424 968.43 968.436 968.443
          968.449 968.456 968.463 525.312 525.32 525.327 968.475 968.48 968.486 968.492 968.498 968.504
          968.51 968.516 968.522 968.528 968.534 968.541 968.548 968.295 968.3 968.306 968.311 968.318
          968.324 968.331 968.339 968.347 524.876 524.885 524.891 968.358 968.362 968.367 968.373 968.378
          968.384 968.39 968.396 968.401 968.407 968.412 968.417 968.418 968.176 968.181 968.186 968.192
          968.199 968.205 968.213 968.221 968.231 524.441 524.451 524.458 968.241 968.244 968.248 968.253
          968.259 968.264 968.27 968.275 968.281 968.286 968.291 968.294 968.295 968.08 968.085 968.091
          968.097 968.103 968.11 968.118 968.127 968.137 524.086 524.096 524.102 968.146 968.149 968.153
          968.157 968.162 968.167 968.172 968.177 968.182 968.187 968.19 968.193 968.194 967.961 967.967
          967.973 967.98 967.987 967.994 968.002 968.011 968.02 523.638 523.647 523.653 968.029 968.032
          968.035 968.039 968.043 968.047 968.052 968.056 968.06 968.063 968.066 968.068 968.069 967.842
          967.848 967.855 967.862 967.869 967.876 967.884 967.893 967.902 523.19 523.199 523.205 967.912
          967.914 967.917 967.92 967.924 967.927 967.931 967.935 967.938 967.941 967.943 967.944 967.945
          967.723 967.729 967.736 967.743 967.75 967.758 967.766 967.775 967.784 522.742 522.752 522.758
          967.794 967.796 967.798 967.801 967.804 967.807 967.81 967.813 967.816 967.818 967.82 967.821
          967.821 967.603 967.61 967.617 967.624 967.631 967.638 967.646 967.655 967.666 522.297 522.309
          522.315 967.675 967.677 967.678 967.681 967.683 967.686 967.689 967.691 967.694 967.696 967.697
          967.698 967.699 967.484 967.492 967.498 967.505 967.512 967.519 967.527 967.535 967.543 967.551
          967.555 967.557 967.556 967.557 967.559 967.561 967.563 967.565 967.568 967.57 967.572 967.574
          967.575 967.576 967.577 967.366 967.375 967.38 967.385 967.392 967.399 967.406 967.414 967.421
          967.427 967.432 967.434 967.436 967.437 967.438 967.44 967.443 967.445 967.447 967.449 967.451
          967.453 967.454 967.455 967.455 967.268 967.257 967.26 967.265 967.271 967.278 967.286 967.293
          967.3 967.306 967.31 967.313 967.315 967.316 967.318 967.32 967.322 967.324 967.326 967.328
          967.33 967.332 967.333 967.334 967.334
        </DataArray>
        <DataArray type="Float32" Name="saturation_l" NumberOfComponents="1" format="ascii">
          1 1 1 1 1 1 1 1 1 1 1 1
          1 1 1 1 1 1 1 1 1 1 1 1
          1 1 1 1 1 1 1 1 1 1 1 1
          1 1 1 1 1 1 1 1 1 1 1 1
          1 1 1 1 1 1 1 1 1 1 1 1
          1 1 1 1 1 1 1 1 1 1 1 1
          1 1 0.986241 1 1 1 1 1 1 1 1 1
          1 1 1 1 1 1 1 1 1 1 1 1
          1 1 0.999996 0.97249 1 1 1 1 1 1 1 1
          1 1 1 1 1 1 1 1 1 1 1 1
          1 1 1 0.999995 0.972485 1 1 1 1 1 1 1
          1 1 1 1 1 1 1 1 1 1 1 1
          1 1 1 1 0.999996 0.972482 1 1 1 1 1 1
          1 1 1 1 1 1 1 1 1 1 1 1
          1 1 1 1 1 1 0.986228 1 1 1 1 1
          1 1 1 1 1 1 1 1 1 1 1 1
          1 1 1 1 1 1 1 0.999999 1 1 1 1
          1 1 1 1 1 1 1 1 1 1 1 1
          1 1 1 1 1 1 1 1 1 1 1 1
          1 1 1 1 1 1 1 1 1 1 1 1
          1 1 1 1 1 1 1 1 1 1 1 1
          1 1 1 1 1 1 1 1 1 1 1 1
          1 1 1 1 1 1 1 1 1 1 1 1
          1 1 1 1 1 1 1 1 1 1 1 1
          1 1 1 1 1 1 1 1 1 1 1 1
          1 1 1 1 1 1 1 1 1 1 1 1
          1 1 1 1 1 1 1 1 1 1 1 1
          1 1 1 1 1 1 1 1 1 1 1 1
          1 1 1 1 1 1 1 1 1 1 1 1
          1 1 1 1 1 1 1 1 1 1 1 1
          1 1 1 1 1 1 1 1 1 1 1 1
          1 1 1 1 1 1 1 1 1 1 1 1
          1 1 1 1 1 1 1 1 1 1 1 1
          1 1 1 1 1 1 1 1 1 1 1 1
          1 1 1 1 1 1 1 1 1 1 1 1
          1 1 1 1 1
        </DataArray>
        <DataArray type="Float32" Name="saturation_g" NumberOfComponents="1" format="ascii">
          0 0 0 0 0 0 0 0 0 0 0 0
          0 0 0 0 0 0 0 0 0 0 0 0
          0 0 0 0 0 0 0 0 0 0 0 0
          0 0 0 0 0 0 0 0 0 0 0 0
          0 0 0 0 0 0 0 0 0 0 0 0
          0 0 0 0 0 0 0 0 0 0 0 0
          0 3.13763e-07 0.0137587 0 0 0 0 0 0 0 0 0
          0 0 0 0 0 0 0 0 0 0 0 0
          0 0 4.28572e-06 0.0275101 0 0 0 0 0 0 0 0
          0 0 0 0 0 0 0 0 0 0 0 0
          0 0 0 4.66955e-06 0.0275148 0 0 0 0 0 0 0
          0 0 0 0 0 0 0 0 0 0 0 0
          0 0 0 0 4.27699e-06 0.0275182 0 0 0 0 0 0
          0 0 0 0 0 0 0 0 0 0 0 0
          0 0 0 0 0 3.10191e-07 0.0137718 0 0 0 0 0
          0 0 0 0 0 0 0 0 0 0 0 0
          0 0 0 0 0 0 0 8.78383e-07 0 0 0 0
          0 0 0 0 0 0 0 0 0 0 0 0
          0 0 0 0 0 0 0 0 0 0 0 0
          0 0 0 0 0 0 0 0 0 0 0 0
          0 0 0 0 0 0 0 0 0 0 0 0
          0 0 0 0 0 0 0 0 0 0 0 0
          0 0 0 0 0 0 0 0 0 0 0 0
          0 0 0 0 0 0 0 0 0 0 0 0
          0 0 0 0 0 0 0 0 0 0 0 0
          0 0 0 0 0 0 0 0 0 0 0 0
          0 0 0 0 0 0 0 0 0 0 0 0
          0 0 0 0 0 0 0 0 0 0 0 0
          0 0 0 0 0 0 0 0 0 0 0 0
          0 0 0 0 0 0 0 0 0 0 0 0
          0 0 0 0 0 0 0 0 0 0 0 0
          0 0 0 0 0 0 0 0 0 0 0 0
          0 0 0 0 0 0 0 0 0 0 0 0
          0 0 0 0 0 0 0 0 0 0 0 0
          0 0 0 0 0 0 0 0 0 0 0 0
          0 0 0 0 0
        </DataArray>
        <DataArray type="Float32" Name="relativePerm_l" NumberOfComponents="1" format="ascii">
          1 1 1 1 1 1 1 1 1 1 1 1
          1 1 1 1 1 1 1 1 1 1 1 1
          1 1 1 1 1 1 1 1 1 1 1 1
          1 1 1 1 1 1 1 1 1 1 1 1
          1 1 1 1 1 1 1 1 1 1 1 1
          1 1 1 1 1 1 1 1 1 1 1 1
          1 0.999998 0.932961 1 1 1 1 1 1 1 1 1
          1 1 1 1 1 1 1 1 1 1 1 1
          1 1 0.999979 0.869383 1 1 1 1 1 1 1 1
          1 1 1 1 1 1 1 1 1 1 1 1
          1 1 1 0.999977 0.869362 1 1 1 1 1 1 1
          1 1 1 1 1 1 1 1 1 1 1 1
          1 1 1 1 0.999979 0.869347 1 1 1 1 1 1
          1 1 1 1 1 1 1 1 1 1 1 1
          1 1 1 1 1 0.999998 0.932899 1 1 1 1 1
          1 1 1 1 1 1 1 1 1 1 1 1
          1 1 1 1 1 1 1 0.999996 1 1 1 1
          1 1 1 1 1 1 1 1 1 1 1 1
          1 1 1 1 1 1 1 1 1 1 1 1
          1 1 1 1 1 1 1 1 1 1 1 1
          1 1 1 1 1 1 1 1 1 1 1 1
          1 1 1 1 1 1 1 1 1 1 1 1
          1 1 1 1 1 1 1 1 1 1 1 1
          1 1 1 1 1 1 1 1 1 1 1 1
          1 1 1 1 1 1 1 1 1 1 1 1
          1 1 1 1 1 1 1 1 1 1 1 1
          1 1 1 1 1 1 1 1 1 1 1 1
          1 1 1 1 1 1 1 1 1 1 1 1
          1 1 1 1 1 1 1 1 1 1 1 1
          1 1 1 1 1 1 1 1 1 1 1 1
          1 1 1 1 1 1 1 1 1 1 1 1
          1 1 1 1 1 1 1 1 1 1 1 1
          1 1 1 1 1 1 1 1 1 1 1 1
          1 1 1 1 1 1 1 1 1 1 1 1
          1 1 1 1 1 1 1 1 1 1 1 1
          1 1 1 1 1
        </DataArray>
        <DataArray type="Float32" Name="relativePerm_g" NumberOfComponents="1" format="ascii">
          0 0 0 0 0 0 0 0 0 0 0 0
          0 0 0 0 0 0 0 0 0 0 0 0
          0 0 0 0 0 0 0 0 0 0 0 0
          0 0 0 0 0 0 0 0 0 0 0 0
          0 0 0 0 0 0 0 0 0 0 0 0
          0 0 0 0 0 0 0 0 0 0 0 0
          0 1.2066e-19 1.00865e-05 0 0 0 0 0 0 0 0 0
          0 0 0 0 0 0 0 0 0 0 0 0
          0 0 3.07489e-16 7.99291e-05 0 0 0 0 0 0 0 0
          0 0 0 0 0 0 0 0 0 0 0 0
          0 0 0 3.97725e-16 7.99695e-05 0 0 0 0 0 0 0
          0 0 0 0 0 0 0 0 0 0 0 0
          0 0 0 0 3.05615e-16 7.99993e-05 0 0 0 0 0 0
          0 0 0 0 0 0 0 0 0 0 0 0
          0 0 0 0 0 1.16587e-19 1.01153e-05 0 0 0 0 0
          0 0 0 0 0 0 0 0 0 0 0 0
          0 0 0 0 0 0 0 2.64735e-18 0 0 0 0
          0 0 0 0 0 0 0 0 0 0 0 0
          0 0 0 0 0 0 0 0 0 0 0 0
          0 0 0 0 0 0 0 0 0 0 0 0
          0 0 0 0 0 0 0 0 0 0 0 0
          0 0 0 0 0 0 0 0 0 0 0 0
          0 0 0 0 0 0 0 0 0 0 0 0
          0 0 0 0 0 0 0 0 0 0 0 0
          0 0 0 0 0 0 0 0 0 0 0 0
          0 0 0 0 0 0 0 0 0 0 0 0
          0 0 0 0 0 0 0 0 0 0 0 0
          0 0 0 0 0 0 0 0 0 0 0 0
          0 0 0 0 0 0 0 0 0 0 0 0
          0 0 0 0 0 0 0 0 0 0 0 0
          0 0 0 0 0 0 0 0 0 0 0 0
          0 0 0 0 0 0 0 0 0 0 0 0
          0 0 0 0 0 0 0 0 0 0 0 0
          0 0 0 0 0 0 0 0 0 0 0 0
          0 0 0 0 0 0 0 0 0 0 0 0
          0 0 0 0 0
        </DataArray>
        <DataArray type="Float32" Name="porosity" NumberOfComponents="1" format="ascii">
          0.3 0.3 0.3 0.3 0.3 0.3 0.3 0.3 0.3 0.3 0.3 0.3
          0.3 0.3 0.3 0.3 0.3 0.3 0.3 0.3 0.3 0.3 0.3 0.3
          0.3 0.3 0.3 0.3 0.3 0.3 0.3 0.3 0.3 0.3 0.3 0.3
          0.3 0.3 0.3 0.3 0.3 0.3 0.3 0.3 0.3 0.3 0.3 0.3
          0.3 0.3 0.3 0.3 0.3 0.3 0.3 0.3 0.3 0.3 0.3 0.3
          0.3 0.3 0.3 0.3 0.3 0.3 0.3 0.3 0.3 0.3 0.3 0.3
          0.3 0.3 0.3 0.3 0.3 0.3 0.3 0.3 0.3 0.3 0.3 0.3
          0.3 0.3 0.3 0.3 0.3 0.3 0.3 0.3 0.3 0.3 0.3 0.3
          0.3 0.3 0.3 0.3 0.3 0.3 0.3 0.3 0.3 0.3 0.3 0.3
          0.3 0.3 0.3 0.3 0.3 0.3 0.3 0.3 0.3 0.3 0.3 0.3
          0.3 0.3 0.3 0.3 0.3 0.3 0.3 0.3 0.3 0.3 0.3 0.3
          0.3 0.3 0.3 0.3 0.3 0.3 0.3 0.3 0.3 0.3 0.3 0.3
          0.3 0.3 0.3 0.3 0.3 0.3 0.3 0.3 0.3 0.3 0.3 0.3
          0.3 0.3 0.3 0.3 0.3 0.3 0.3 0.3 0.3 0.3 0.3 0.3
          0.3 0.3 0.3 0.3 0.3 0.3 0.3 0.3 0.3 0.3 0.3 0.3
          0.3 0.3 0.3 0.3 0.3 0.3 0.3 0.3 0.3 0.3 0.3 0.3
          0.3 0.3 0.3 0.3 0.3 0.3 0.3 0.3 0.3 0.3 0.3 0.3
          0.3 0.3 0.3 0.3 0.3 0.3 0.3 0.3 0.3 0.3 0.3 0.3
          0.3 0.3 0.3 0.3 0.3 0.3 0.3 0.3 0.3 0.3 0.3 0.3
          0.3 0.3 0.3 0.3 0.3 0.3 0.3 0.3 0.3 0.3 0.3 0.3
          0.3 0.3 0.3 0.3 0.3 0.3 0.3 0.3 0.3 0.3 0.3 0.3
          0.3 0.3 0.3 0.3 0.3 0.3 0.3 0.3 0.3 0.3 0.3 0.3
          0.3 0.3 0.3 0.3 0.3 0.3 0.3 0.3 0.3 0.3 0.3 0.3
          0.3 0.3 0.3 0.3 0.3 0.3 0.3 0.3 0.3 0.3 0.3 0.3
          0.3 0.3 0.3 0.3 0.3 0.3 0.3 0.3 0.3 0.3 0.3 0.3
          0.3 0.3 0.3 0.3 0.3 0.3 0.3 0.3 0.3 0.3 0.3 0.3
          0.3 0.3 0.3 0.3 0.3 0.3 0.3 0.3 0.3 0.3 0.3 0.3
          0.3 0.3 0.3 0.3 0.3 0.3 0.3 0.3 0.3 0.3 0.3 0.3
          0.3 0.3 0.3 0.3 0.3 0.3 0.3 0.3 0.3 0.3 0.3 0.3
          0.3 0.3 0.3 0.3 0.3 0.3 0.3 0.3 0.3 0.3 0.3 0.3
          0.3 0.3 0.3 0.3 0.3 0.3 0.3 0.3 0.3 0.3 0.3 0.3
          0.3 0.3 0.3 0.3 0.3 0.3 0.3 0.3 0.3 0.3 0.3 0.3
          0.3 0.3 0.3 0.3 0.3 0.3 0.3 0.3 0.3 0.3 0.3 0.3
          0.3 0.3 0.3 0.3 0.3 0.3 0.3 0.3 0.3 0.3 0.3 0.3
          0.3 0.3 0.3 0.3 0.3 0.3 0.3 0.3 0.3 0.3 0.3 0.3
          0.3 0.3 0.3 0.3 0.3
        </DataArray>
        <DataArray type="Float32" Name="temperature" NumberOfComponents="1" format="ascii">
          293.15 293.15 293.15 293.15 293.15 293.15 293.15 293.15 293.15 293.15 293.15 293.15
          293.15 293.15 293.15 293.15 293.15 293.15 293.15 293.15 293.15 293.15 293.15 293.15
          293.15 293.15 293.15 293.15 293.15 293.15 293.15 293.15 293.15 293.15 293.15 293.15
          293.15 293.15 293.15 293.15 293.15 293.15 293.15 293.15 293.15 293.15 293.15 293.15
          293.15 293.15 293.15 293.15 293.15 293.15 293.15 293.15 293.15 293.15 293.15 293.15
          293.15 293.15 293.15 293.15 293.15 293.15 293.15 293.15 293.15 293.15 293.15 293.15
          293.15 293.15 293.15 293.15 293.15 293.15 293.15 293.15 293.15 293.15 293.15 293.15
          393.15 393.15 393.15 293.15 293.15 293.15 293.15 293.15 293.15 293.15 293.15 293.15
          293.15 293.15 293.15 293.15 293.15 293.15 293.15 293.15 293.15 293.15 293.15 293.15
          293.15 393.15 393.15 393.15 293.15 293.15 293.15 293.15 293.15 293.15 293.15 293.15
          293.15 293.15 293.15 293.15 293.15 293.15 293.15 293.15 293.15 293.15 293.15 293.15
          293.15 293.15 393.15 393.15 393.15 293.15 293.15 293.15 293.15 293.15 293.15 293.15
          293.15 293.15 293.15 293.15 293.15 293.15 293.15 293.15 293.15 293.15 293.15 293.15
          293.15 293.15 293.15 393.15 393.15 393.15 293.15 293.15 293.15 293.15 293.15 293.15
          293.15 293.15 293.15 293.15 293.15 293.15 293.15 293.15 293.15 293.15 293.15 293.15
          293.15 293.15 293.15 293.15 393.15 393.15 393.15 293.15 293.15 293.15 293.15 293.15
          293.15 293.15 293.15 293.15 293.15 293.15 293.15 293.15 293.15 293.15 293.15 293.15
          293.15 293.15 293.15 293.15 293.15 393.15 393.15 393.15 293.15 293.15 293.15 293.15
          293.15 293.15 293.15 293.15 293.15 293.15 293.15 293.15 293.15 293.15 293.15 293.15
          293.15 293.15 293.15 293.15 293.15 293.15 393.15 393.15 393.15 293.15 293.15 293.15
          293.15 293.15 293.15 293.15 293.15 293.15 293.15 293.15 293.15 293.15 293.15 293.15
          293.15 293.15 293.15 293.15 293.15 293.15 293.15 393.15 393.15 393.15 293.15 293.15
          293.15 293.15 293.15 293.15 293.15 293.15 293.15 293.15 293.15 293.15 293.15 293.15
          293.15 293.15 293.15 293.15 293.15 293.15 293.15 293.15 393.15 393.15 393.15 293.15
          293.15 293.15 293.15 293.15 293.15 293.15 293.15 293.15 293.15 293.15 293.15 293.15
          293.15 293.15 293.15 293.15 293.15 293.15 293.15 293.15 293.15 393.15 393.15 393.15
          293.15 293.15 293.15 293.15 293.15 293.15 293.15 293.15 293.15 293.15 293.15 293.15
          293.15 293.15 293.15 293.15 293.15 293.15 293.15 293.15 293.15 293.15 393.15 393.15
          393.15 293.15 293.15 293.15 293.15 293.15 293.15 293.15 293.15 293.15 293.15 293.15
          293.15 293.15 293.15 293.15 293.15 293.15 293.15 293.15 293.15 293.15 293.15 293.15
          293.15 293.15 293.15 293.15 293.15 293.15 293.15 293.15 293.15 293.15 293.15 293.15
          293.15 293.15 293.15 293.15 293.15 293.15 293.15 293.15 293.15 293.15 293.15 293.15
          293.15 293.15 293.15 293.15 293.15 293.15 293.15 293.15 293.15 293.15 293.15 293.15