<?xml version="1.0"?>
<VTKFile type="UnstructuredGrid" version="0.1" byte_order="LittleEndian">
  <UnstructuredGrid>
    <Piece NumberOfCells="384" NumberOfPoints="425">
      <PointData Scalars="pressure_l">
        <DataArray type="Float32" Name="pressure_l" NumberOfComponents="1" format="ascii">
          2.63165e+07 2.63215e+07 2.62952e+07 2.62956e+07 2.63232e+07 2.62969e+07 2.63245e+07 2.62981e+07 2.63255e+07 2.6299e+07 2.63264e+07 2.62999e+07
          2.63271e+07 2.63007e+07 2.63277e+07 2.63013e+07 2.63283e+07 2.63018e+07 2.63288e+07 2.63023e+07 2.63295e+07 2.63029e+07 2.63304e+07 2.63038e+07
          2.63316e+07 2.6305e+07 2.63328e+07 2.63063e+07 2.6334e+07 2.63076e+07 2.63353e+07 2.63088e+07 2.63364e+07 2.631e+07 2.63376e+07 2.63111e+07
          2.63387e+07 2.63122e+07 2.63398e+07 2.63133e+07 2.63409e+07 2.63144e+07 2.63419e+07 2.63155e+07 2.63428e+07 2.63165e+07 2.63435e+07 2.63173e+07
          2.63438e+07 2.63176e+07 2.62692e+07 2.62699e+07 2.62708e+07 2.62718e+07 2.62727e+07 2.62736e+07 2.62744e+07 2.6275e+07 2.62754e+07 2.62755e+07
          2.6276e+07 2.62769e+07 2.62784e+07 2.62798e+07 2.62811e+07 2.62824e+07 2.62835e+07 2.62847e+07 2.62858e+07 2.62869e+07 2.6288e+07 2.62891e+07
          2.62902e+07 2.62913e+07 2.62925e+07 2.6243e+07 2.62438e+07 2.62447e+07 2.62456e+07 2.62465e+07 2.62474e+07 2.62482e+07 2.62489e+07 2.62493e+07
          2.62492e+07 2.62495e+07 2.62499e+07 2.6252e+07 2.62535e+07 2.62548e+07 2.6256e+07 2.62571e+07 2.62582e+07 2.62593e+07 2.62604e+07 2.62615e+07
          2.62627e+07 2.62639e+07 2.62654e+07 2.62673e+07 2.62168e+07 2.62177e+07 2.62185e+07 2.62194e+07 2.62204e+07 2.62213e+07 2.62221e+07 2.62229e+07
          2.62236e+07 2.62239e+07 2.62241e+07 2.62245e+07 2.6226e+07 2.62273e+07 2.62285e+07 2.62296e+07 2.62307e+07 2.62318e+07 2.62329e+07 2.6234e+07
          2.6235e+07 2.62362e+07 2.62375e+07 2.6239e+07 2.6241e+07 2.61906e+07 2.61915e+07 2.61923e+07 2.61933e+07 2.61942e+07 2.61952e+07 2.61961e+07
          2.61971e+07 2.61981e+07 2.61984e+07 2.61987e+07 2.6199e+07 2.62002e+07 2.62013e+07 2.62023e+07 2.62034e+07 2.62044e+07 2.62054e+07 2.62064e+07
          2.62075e+07 2.62085e+07 2.62096e+07 2.62108e+07 2.62122e+07 2.62141e+07 2.61644e+07 2.61652e+07 2.61661e+07 2.6167e+07 2.6168e+07 2.6169e+07
          2.61701e+07 2.61713e+07 2.61725e+07 2.61729e+07 2.61732e+07 2.61735e+07 2.61744e+07 2.61753e+07 2.61761e+07 2.61771e+07 2.6178e+07 2.6179e+07
          2.618e+07 2.61809e+07 2.61819e+07 2.6183e+07 2.6184e+07 2.6185e+07 2.61861e+07 2.61381e+07 2.6139e+07 2.61398e+07 2.61408e+07 2.61418e+07
          2.61429e+07 2.61441e+07 2.61454e+07 2.61469e+07 2.61474e+07 2.61478e+07 2.61481e+07 2.61486e+07 2.61492e+07 2.61499e+07 2.61508e+07 2.61516e+07
          2.61525e+07 2.61535e+07 2.61544e+07 2.61554e+07 2.61563e+07 2.61571e+07 2.61578e+07 2.61581e+07 2.61119e+07 2.61126e+07 2.61135e+07 2.61144e+07
          2.61155e+07 2.61166e+07 2.61179e+07 2.61194e+07 2.61212e+07 2.6122e+07 2.61225e+07 2.61228e+07 2.61227e+07 2.6123e+07 2.61236e+07 2.61244e+07
          2.61252e+07 2.61261e+07 2.6127e+07 2.61279e+07 2.61288e+07 2.61296e+07 2.61304e+07 2.61309e+07 2.61311e+07 2.60857e+07 2.60865e+07 2.60874e+07
          2.60883e+07 2.60894e+07 2.60906e+07 2.6092e+07 2.60935e+07 2.60954e+07 2.60963e+07 2.60968e+07 2.6097e+07 2.60968e+07 2.60971e+07 2.60976e+07
          2.60982e+07 2.60989e+07 2.60997e+07 2.61005e+07 2.61013e+07 2.61021e+07 2.61028e+07 2.61034e+07 2.61038e+07 2.6104e+07 2.60595e+07 2.60604e+07
          2.60614e+07 2.60625e+07 2.60636e+07 2.60649e+07 2.60663e+07 2.60679e+07 2.60696e+07 2.60702e+07 2.60706e+07 2.60708e+07 2.6071e+07 2.60713e+07
          2.60717e+07 2.60722e+07 2.60727e+07 2.60734e+07 2.6074e+07 2.60747e+07 2.60753e+07 2.60758e+07 2.60763e+07 2.60766e+07 2.60767e+07 2.60333e+07
          2.60343e+07 2.60354e+07 2.60365e+07 2.60377e+07 2.6039e+07 2.60405e+07 2.6042e+07 2.60437e+07 2.60442e+07 2.60446e+07 2.60448e+07 2.60451e+07
          2.60454e+07 2.60457e+07 2.6046e+07 2.60465e+07 2.6047e+07 2.60475e+07 2.60481e+07 2.60486e+07 2.6049e+07 2.60493e+07 2.60496e+07 2.60496e+07
          2.60071e+07 2.60082e+07 2.60094e+07 2.60105e+07 2.60117e+07 2.6013e+07 2.60145e+07 2.60161e+07 2.60178e+07 2.60184e+07 2.60188e+07 2.60191e+07
          2.60192e+07 2.60194e+07 2.60196e+07 2.60198e+07 2.60202e+07 2.60206e+07 2.6021e+07 2.60215e+07 2.60219e+07 2.60222e+07 2.60225e+07 2.60227e+07
          2.60227e+07 2.59809e+07 2.59821e+07 2.59833e+07 2.59844e+07 2.59856e+07 2.59869e+07 2.59883e+07 2.59899e+07 2.59919e+07 2.59927e+07 2.59933e+07
          2.59935e+07 2.59933e+07 2.59932e+07 2.59934e+07 2.59936e+07 2.59939e+07 2.59942e+07 2.59946e+07 2.59949e+07 2.59952e+07 2.59955e+07 2.59958e+07
          2.59959e+07 2.59959e+07 2.59547e+07 2.59561e+07 2.59572e+07 2.59583e+07 2.59594e+07 2.59607e+07 2.5962e+07 2.59635e+07 2.5965e+07 2.59666e+07
          2.59672e+07 2.59675e+07 2.59671e+07 2.5967e+07 2.59671e+07 2.59672e+07 2.59675e+07 2.59678e+07 2.59681e+07 2.59684e+07 2.59687e+07 2.59689e+07
          2.59691e+07 2.59692e+07 2.59693e+07 2.59288e+07 2.59304e+07 2.59311e+07 2.5932e+07 2.59331e+07 2.59343e+07 2.59356e+07 2.5937e+07 2.59383e+07
          2.59394e+07 2.59402e+07 2.59405e+07 2.59406e+07 2.59406e+07 2.59407e+07 2.59408e+07 2.59411e+07 2.59413e+07 2.59416e+07 2.59419e+07 2.59421e+07
          2.59423e+07 2.59425e+07 2.59426e+07 2.59427e+07 2.59074e+07 2.59045e+07 2.59048e+07 2.59056e+07 2.59067e+07 2.59079e+07 2.59092e+07 2.59105e+07
          2.59117e+07 2.59128e+07 2.59135e+07 2.59139e+07 2.59141e+07 2.59141e+07 2.59142e+07 2.59144e+07 2.59146e+07 2.59148e+07 2.59151e+07 2.59154e+07
          2.59156e+07 2.59158e+07 2.5916e+07 2.59161e+07 2.59161e+07
        </DataArray>
        <DataArray type="Float32" Name="pressure_g" NumberOfComponents="1" format="ascii">
          2.63215e+07 2.63265e+07 2.63002e+07 2.63006e+07 2.63282e+07 2.63019e+07 2.63295e+07 2.63031e+07 2.63305e+07 2.6304e+07 2.63314e+07 2.63049e+07
          2.63321e+07 2.63057e+07 2.63327e+07 2.63063e+07 2.63333e+07 2.63068e+07 2.63338e+07 2.63073e+07 2.63345e+07 2.63079e+07 2.63354e+07 2.63088e+07
          2.63366e+07 2.631e+07 2.63378e+07 2.63113e+07 2.6339e+07 2.63126e+07 2.63403e+07 2.63138e+07 2.63414e+07 2.6315e+07 2.63426e+07 2.63161e+07
          2.63437e+07 2.63172e+07 2.63448e+07 2.63183e+07 2.63459e+07 2.63194e+07 2.63469e+07 2.63205e+07 2.63478e+07 2.63215e+07 2.63485e+07 2.63223e+07
          2.63488e+07 2.63226e+07 2.62742e+07 2.62749e+07 2.62758e+07 2.62768e+07 2.62777e+07 2.62786e+07 2.62794e+07 2.628e+07 2.62804e+07 2.62805e+07
          2.6281e+07 2.62819e+07 2.62834e+07 2.62848e+07 2.62861e+07 2.62874e+07 2.62885e+07 2.62897e+07 2.62908e+07 2.62919e+07 2.6293e+07 2.62941e+07
          2.62952e+07 2.62963e+07 2.62975e+07 2.6248e+07 2.62488e+07 2.62497e+07 2.62506e+07 2.62515e+07 2.62524e+07 2.62532e+07 2.62539e+07 2.62543e+07
          2.62542e+07 2.62545e+07 2.62549e+07 2.6257e+07 2.62585e+07 2.62598e+07 2.6261e+07 2.62621e+07 2.62632e+07 2.62643e+07 2.62654e+07 2.62665e+07
          2.62677e+07 2.62689e+07 2.62704e+07 2.62723e+07 2.62218e+07 2.62227e+07 2.62235e+07 2.62244e+07 2.62254e+07 2.62263e+07 2.62271e+07 2.62279e+07
          2.62286e+07 2.62289e+07 2.62291e+07 2.62295e+07 2.6231e+07 2.62323e+07 2.62335e+07 2.62346e+07 2.62357e+07 2.62368e+07 2.62379e+07 2.6239e+07
          2.624e+07 2.62412e+07 2.62425e+07 2.6244e+07 2.6246e+07 2.61956e+07 2.61965e+07 2.61973e+07 2.61983e+07 2.61992e+07 2.62002e+07 2.62011e+07
          2.62021e+07 2.62031e+07 2.62034e+07 2.62037e+07 2.6204e+07 2.62052e+07 2.62063e+07 2.62073e+07 2.62084e+07 2.62094e+07 2.62104e+07 2.62114e+07
          2.62125e+07 2.62135e+07 2.62146e+07 2.62158e+07 2.62172e+07 2.62191e+07 2.61694e+07 2.61702e+07 2.61711e+07 2.6172e+07 2.6173e+07 2.6174e+07
          2.61751e+07 2.61763e+07 2.61775e+07 2.61779e+07 2.61782e+07 2.61785e+07 2.61794e+07 2.61803e+07 2.61811e+07 2.61821e+07 2.6183e+07 2.6184e+07
          2.6185e+07 2.61859e+07 2.61869e+07 2.6188e+07 2.6189e+07 2.619e+07 2.61911e+07 2.61431e+07 2.6144e+07 2.61448e+07 2.61458e+07 2.61468e+07
          2.61479e+07 2.61491e+07 2.61504e+07 2.61519e+07 2.61524e+07 2.61528e+07 2.61531e+07 2.61536e+07 2.61542e+07 2.61549e+07 2.61558e+07 2.61566e+07
          2.61575e+07 2.61585e+07 2.61594e+07 2.61604e+07 2.61613e+07 2.61621e+07 2.61628e+07 2.61631e+07 2.61169e+07 2.61176e+07 2.61185e+07 2.61194e+07
          2.61205e+07 2.61216e+07 2.61229e+07 2.61244e+07 2.61262e+07 2.6127e+07 2.61275e+07 2.61278e+07 2.61277e+07 2.6128e+07 2.61286e+07 2.61294e+07
          2.61302e+07 2.61311e+07 2.6132e+07 2.61329e+07 2.61338e+07 2.61346e+07 2.61354e+07 2.61359e+07 2.61361e+07 2.60957e+07 2.60965e+07 2.60974e+07
          2.60983e+07 2.60994e+07 2.61006e+07 2.6102e+07 2.61035e+07 2.61054e+07 2.61063e+07 2.61068e+07 2.6107e+07 2.61068e+07 2.61071e+07 2.61076e+07
          2.61082e+07 2.61089e+07 2.61097e+07 2.61105e+07 2.61113e+07 2.61121e+07 2.61128e+07 2.61134e+07 2.61138e+07 2.6114e+07 2.60695e+07 2.60704e+07
          2.60714e+07 2.60725e+07 2.60736e+07 2.60749e+07 2.60763e+07 2.60779e+07 2.60796e+07 2.60802e+07 2.60806e+07 2.60808e+07 2.6081e+07 2.60813e+07
          2.60817e+07 2.60822e+07 2.60827e+07 2.60834e+07 2.6084e+07 2.60847e+07 2.60853e+07 2.60858e+07 2.60863e+07 2.60866e+07 2.60867e+07 2.60433e+07
          2.60443e+07 2.60454e+07 2.60465e+07 2.60477e+07 2.6049e+07 2.60505e+07 2.6052e+07 2.60537e+07 2.60542e+07 2.60546e+07 2.60548e+07 2.60551e+07
          2.60554e+07 2.60557e+07 2.6056e+07 2.60565e+07 2.6057e+07 2.60575e+07 2.60581e+07 2.60586e+07 2.6059e+07 2.60593e+07 2.60596e+07 2.60596e+07
          2.60171e+07 2.60182e+07 2.60194e+07 2.60205e+07 2.60217e+07 2.6023e+07 2.60245e+07 2.60261e+07 2.60278e+07 2.60284e+07 2.60288e+07 2.60291e+07
          2.60292e+07 2.60294e+07 2.60296e+07 2.60298e+07 2.60302e+07 2.60306e+07 2.6031e+07 2.60315e+07 2.60319e+07 2.60322e+07 2.60325e+07 2.60327e+07
          2.60327e+07 2.59909e+07 2.59921e+07 2.59933e+07 2.59944e+07 2.59956e+07 2.59969e+07 2.59983e+07 2.59999e+07 2.60019e+07 2.60027e+07 2.60033e+07
          2.60035e+07 2.60033e+07 2.60032e+07 2.60034e+07 2.60036e+07 2.60039e+07 2.60042e+07 2.60046e+07 2.60049e+07 2.60052e+07 2.60055e+07 2.60058e+07
          2.60059e+07 2.60059e+07 2.59647e+07 2.59661e+07 2.59672e+07 2.59683e+07 2.59694e+07 2.59707e+07 2.5972e+07 2.59735e+07 2.5975e+07 2.59766e+07
          2.59772e+07 2.59775e+07 2.59771e+07 2.5977e+07 2.59771e+07 2.59772e+07 2.59775e+07 2.59778e+07 2.59781e+07 2.59784e+07 2.59787e+07 2.59789e+07
          2.59791e+07 2.59792e+07 2.59793e+07 2.59388e+07 2.59404e+07 2.59411e+07 2.5942e+07 2.59431e+07 2.59443e+07 2.59456e+07 2.5947e+07 2.59483e+07
          2.59494e+07 2.59502e+07 2.59505e+07 2.59506e+07 2.59506e+07 2.59507e+07 2.59508e+07 2.59511e+07 2.59513e+07 2.59516e+07 2.59519e+07 2.59521e+07
          2.59523e+07 2.59525e+07 2.59526e+07 2.59527e+07 2.59174e+07 2.59145e+07 2.59148e+07 2.59156e+07 2.59167e+07 2.59179e+07 2.59192e+07 2.59205e+07
          2.59217e+07 2.59228e+07 2.59235e+07 2.59239e+07 2.59241e+07 2.59241e+07 2.59242e+07 2.59244e+07 2.59246e+07 2.59248e+07 2.59251e+07 2.59254e+07
          2.59256e+07 2.59258e+07 2.5926e+07 2.59261e+07 2.59261e+07
        </DataArray>
        <DataArray type="Float32" Name="density_l" NumberOfComponents="1" format="ascii">
          1080.19 1080.19 1080.18 1080.18 1080.19 1080.18 1080.19 1080.18 1080.19 1080.18 1080.19 1080.18
          1080.19 1080.18 1080.19 1080.18 1080.19 1080.18 1080.19 1080.18 1080.19 1080.18 1080.19 1080.18
          1080.19 1080.18 1080.2 1080.18 1080.2 1080.18 1080.2 1080.19 1080.2 1080.19 1080.2 1080.19
          1080.2 1080.19 1080.2 1080.19 1080.2 1080.19 1080.2 1080.19 1080.2 1080.19 1080.2 1080.19
          1080.2 1080.2 1080.17 1080.17 1080.17 1080.17 1080.17 1080.17 1080.17 1080.17 1080.17 1080.17
          1080.17 1080.17 1080.17 1080.17 1080.17 1080.17 1080.17 1080.18 1080.18 1080.18 1080.18 1080.18
          1080.18 1080.19 1082.51 1080.16 1080.16 1080.16 1080.16 1080.16 1080.16 1080.16 1080.16 1080.16
          1017.06 1017.06 1017.06 1080.16 1080.16 1080.16 1080.16 1080.16 1080.16 1080.16 1080.16 1080.17
          1080.17 1080.17 1080.19 1084.79 1080.15 1080.15 1080.15 1080.15 1080.15 1080.15 1080.15 1080.15
          1080.15 1017.05 1017.05 1017.05 1080.15 1080.15 1080.15 1080.15 1080.15 1080.15 1080.15 1080.15
          1080.15 1080.15 1080.16 1080.18 1084.78 1080.14 1080.14 1080.14 1080.14 1080.14 1080.14 1080.14
          1080.14 1080.14 1017.04 1017.04 1017.04 1080.14 1080.14 1080.14 1080.14 1080.14 1080.14 1080.14
          1080.14 1080.14 1080.14 1080.14 1080.17 1084.77 1080.12 1080.12 1080.13 1080.13 1080.13 1080.13
          1080.13 1080.13 1080.13 1017.03 1017.03 1017.03 1080.13 1080.13 1080.13 1080.13 1080.13 1080.13
          1080.13 1080.13 1080.13 1080.13 1080.13 1080.14 1082.47 1080.11 1080.11 1080.11 1080.11 1080.11
          1080.12 1080.12 1080.12 1080.12 1017.02 1017.02 1017.02 1080.12 1080.12 1080.12 1080.12 1080.12
          1080.12 1080.12 1080.12 1080.12 1080.12 1080.12 1080.12 1080.13 1080.1 1080.1 1080.1 1080.1
          1080.1 1080.1 1080.1 1080.11 1080.11 1017.01 1017.01 1017.01 1080.11 1080.11 1080.11 1080.11
          1080.11 1080.11 1080.11 1080.11 1080.11 1080.11 1080.11 1080.11 1080.11 1080.09 1080.09 1080.09
          1080.09 1080.09 1080.09 1080.09 1080.09 1080.1 1017 1017 1017 1080.1 1080.1 1080.1
          1080.1 1080.1 1080.1 1080.1 1080.1 1080.1 1080.1 1080.1 1080.1 1080.1 1080.08 1080.08
          1080.08 1080.08 1080.08 1080.08 1080.08 1080.08 1080.08 1016.99 1016.99 1016.99 1080.09 1080.09
          1080.09 1080.09 1080.09 1080.09 1080.09 1080.09 1080.09 1080.09 1080.09 1080.09 1080.09 1080.07
          1080.07 1080.07 1080.07 1080.07 1080.07 1080.07 1080.07 1080.07 1016.98 1016.98 1016.98 1080.07
          1080.07 1080.07 1080.07 1080.07 1080.08 1080.08 1080.08 1080.08 1080.08 1080.08 1080.08 1080.08
          1080.06 1080.06 1080.06 1080.06 1080.06 1080.06 1080.06 1080.06 1080.06 1016.97 1016.97 1016.97
          1080.06 1080.06 1080.06 1080.06 1080.06 1080.06 1080.06 1080.06 1080.06 1080.06 1080.06 1080.06
          1080.07 1080.05 1080.05 1080.05 1080.05 1080.05 1080.05 1080.05 1080.05 1080.05 1016.96 1016.96
          1016.96 1080.05 1080.05 1080.05 1080.05 1080.05 1080.05 1080.05 1080.05 1080.05 1080.05 1080.05
          1080.05 1080.05 1080.04 1080.04 1080.04 1080.04 1080.04 1080.04 1080.04 1080.04 1080.04 1080.04
          1080.04 1080.04 1080.04 1080.04 1080.04 1080.04 1080.04 1080.04 1080.04 1080.04 1080.04 1080.04
          1080.04 1080.04 1080.04 1080.03 1080.03 1080.03 1080.03 1080.03 1080.03 1080.03 1080.03 1080.03
          1080.03 1080.03 1080.03 1080.03 1080.03 1080.03 1080.03 1080.03 1080.03 1080.03 1080.03 1080.03
          1080.03 1080.03 1080.03 1080.03 1080.02 1080.02 1080.02 1080.02 1080.02 1080.02 1080.02 1080.02
          1080.02 1080.02 1080.02 1080.02 1080.02 1080.02 1080.02 1080.02 1080.02 1080.02 1080.02 1080.02
          1080.02 1080.02 1080.02 1080.02 1080.02
        </DataArray>
        <DataArray type="Float32" Name="density_g" NumberOfComponents="1" format="ascii">
          969.1 969.122 969.004 969.006 969.13 969.012 969.136 969.017 969.14 969.021 969.144 969.025
          969.148 969.029 969.15 969.032 969.153 969.034 969.155 969.036 969.158 969.039 969.163 969.043
          969.168 969.048 969.173 969.054 969.179 969.06 969.184 969.065 969.19 969.071 969.195 969.076
          969.2 969.081 969.205 969.086 969.21 969.091 969.214 969.095 969.218 969.1 969.221 969.103
          969.223 969.105 968.887 968.89 968.895 968.899 968.903 968.907 968.911 968.913 968.915 968.916
          968.918 968.922 968.929 968.935 968.941 968.946 968.952 968.957 968.962 968.967 968.972 968.977
          968.982 968.987 968.992 968.769 968.773 968.776 968.781 968.785 968.789 968.792 968.795 968.797
          526.568 526.573 526.58 968.81 968.816 968.822 968.828 968.833 968.838 968.843 968.848 968.853
          968.858 968.863 968.87 968.879 968.65 968.654 968.658 968.662 968.666 968.67 968.674 968.678
          968.681 526.134 526.139 526.145 968.692 968.698 968.703 968.708 968.713 968.718 968.723 968.728
          968.733 968.738 968.744 968.751 968.76 968.532 968.536 968.54 968.544 968.548 968.552 968.557
          968.561 968.566 525.697 525.703 525.708 968.575 968.58 968.585 968.589 968.594 968.599 968.603
          968.608 968.613 968.618 968.623 968.63 968.638 968.413 968.417 968.421 968.425 968.43 968.434
          968.439 968.444 968.45 525.26 525.266 525.271 968.458 968.462 968.466 968.471 968.475 968.479
          968.484 968.488 968.493 968.497 968.502 968.507 968.512 968.294 968.298 968.302 968.306 968.311
          968.316 968.321 968.327 968.334 524.824 524.831 524.835 968.342 968.344 968.348 968.351 968.355
          968.36 968.364 968.368 968.372 968.376 968.38 968.383 968.385 968.176 968.179 968.183 968.187
          968.192 968.197 968.203 968.209 968.218 524.389 524.397 524.402 968.224 968.226 968.229 968.232
          968.236 968.24 968.244 968.248 968.252 968.256 968.259 968.262 968.262 968.08 968.083 968.087
          968.092 968.097 968.102 968.108 968.115 968.124 524.034 524.042 524.046 968.13 968.131 968.133
          968.136 968.14 968.143 968.147 968.15 968.154 968.157 968.16 968.162 968.162 967.961 967.965
          967.97 967.975 967.98 967.986 967.992 967.999 968.007 523.586 523.594 523.598 968.013 968.015
          968.016 968.018 968.021 968.024 968.027 968.03 968.033 968.035 968.037 968.039 968.039 967.842
          967.846 967.851 967.856 967.862 967.868 967.874 967.882 967.889 523.138 523.145 523.149 967.896
          967.897 967.898 967.9 967.902 967.904 967.906 967.909 967.911 967.913 967.915 967.916 967.916
          967.722 967.727 967.733 967.738 967.743 967.749 967.756 967.763 967.771 522.69 522.698 522.702
          967.778 967.778 967.779 967.78 967.782 967.784 967.786 967.788 967.79 967.791 967.792 967.793
          967.794 967.603 967.609 967.614 967.619 967.625 967.63 967.637 967.644 967.653 522.245 522.255
          522.259 967.66 967.659 967.66 967.661 967.662 967.664 967.665 967.667 967.668 967.67 967.671
          967.671 967.672 967.484 967.49 967.495 967.5 967.505 967.511 967.517 967.524 967.53 967.538
          967.541 967.542 967.54 967.54 967.54 967.541 967.542 967.543 967.544 967.546 967.547 967.548
          967.549 967.55 967.55 967.365 967.373 967.376 967.38 967.385 967.391 967.397 967.403 967.409
          967.414 967.417 967.419 967.419 967.419 967.42 967.42 967.421 967.423 967.424 967.425 967.426
          967.427 967.428 967.429 967.429 967.268 967.255 967.256 967.26 967.265 967.27 967.276 967.282
          967.288 967.293 967.296 967.298 967.298 967.299 967.299 967.3 967.301 967.302 967.303 967.304
          967.306 967.307 967.307 967.308 967.308
        </DataArray>
        <DataArray type="Float32" Name="saturation_l" NumberOfComponents="1" format="ascii">
          1 1 1 1 1 1 1 1 1 1 1 1
          1 1 1 1 1 1 1 1 1 1 1 1
          1 1 1 1 1 1 1 1 1 1 1 1
          1 1 1 1 1 1 1 1 1 1 1 1
          1 1 1 1 1 1 1 1 1 1 1 1
          1 1 1 1 1 1 1 1 1 1 1 1
          1 1 1 1 1 1 1 1 1 1 1 1
          1 1 1 1 1 1 1 1 1 1 1 1
          1 1 1 1 1 1 1 1 1 1 1 1
          1 1 1 1 1 1 1 1 1 1 1 1
          1 1 1 1 1 1 1 1 1 1 1 1
          1 1 1 1 1 1 1 1 1 1 1 1
          1 1 1 1 1 1 1 1 1 1 1 1
          1 1 1 1 1 1 1 1 1 1 1 1
          1 1 1 1 1 1 1 1 1 1 1 1
          1 1 1 1 1 1 1 1 1 1 1 1
          1 1 1 1 1 1 1 1 1 1 1 1
          1 1 1 1 1 1 1 1 1 1 1 1
          1 1 1 1 1 1 1 1 1 1 1 1
          1 1 1 1 1 1 1 1 1 1 1 1
          1 1 1 1 1 1 1 1 1 1 1 1
          1 1 1 1 1 1 1 1 1 1 1 1
          1 1 1 1 1 1 1 1 1 1 1 1
          1 1 1 1 1 1 1 1 1 1 1 1
          1 1 1 1 1 1 1 1 1 1 1 1
          1 1 1 1 1 1 1 1 1 1 1 1
          1 1 1 1 1 1 1 1 1 1 1 1
          1 1 1 1 1 1 1 1 1 1 1 1
          1 1 1 1 1 1 1 1 1 1 1 1
          1 1 1 1 1 1 1 1 1 1 1 1
          1 1 1 1 1 1 1 1 1 1 1 1
          1 1 1 1 1 1 1 1 1 1 1 1
          1 1 1 1 1 1 1 1 1 1 1 1
          1 1 1 1 1 1 1 1 1 1 1 1
          1 1 1 1 1 1 1 1 1 1 1 1
          1 1 1 1 1
        </DataArray>
        <DataArray type="Float32" Name="saturation_g" NumberOfComponents="1" format="ascii">
          0 0 0 0 0 0 0 0 0 0 0 0
          0 0 0 0 0 0 0 0 0 0 0 0
          0 0 0 0 0 0 0 0 0 0 0 0
          0 0 0 0 0 0 0 0 0 0 0 0
          0 0 0 0 0 0 0 0 0 0 0 0
          0 0 0 0 0 0 0 0 0 0 0 0
          0 0 0 0 0 0 0 0 0 0 0 0
          0 0 0 0 0 0 0 0 0 0 0 0
          0 0 0 0 0 0 0 0 0 0 0 0
          0 0 0 0 0 0 0 0 0 0 0 0
          0 0 0 0 0 0 0 0 0 0 0 0
          0 0 0 0 0 0 0 0 0 0 0 0
          0 0 0 0 0 0 0 0 0 0 0 0
          0 0 0 0 0 0 0 0 0 0 0 0
          0 0 0 0 0 0 0 0 0 0 0 0
          0 0 0 0 0 0 0 0 0 0 0 0
          0 0 0 0 0 0 0 0 0 0 0 0
          0 0 0 0 0 0 0 0 0 0 0 0
          0 0 0 0 0 0 0 0 0 0 0 0
          0 0 0 0 0 0 0 0 0 0 0 0
          0 0 0 0 0 0 0 0 0 0 0 0
          0 0 0 0 0 0 0 0 0 0 0 0
          0 0 0 0 0 0 0 0 0 0 0 0
          0 0 0 0 0 0 0 0 0 0 0 0
          0 0 0 0 0 0 0 0 0 0 0 0
          0 0 0 0 0 0 0 0 0 0 0 0
          0 0 0 0 0 0 0 0 0 0 0 0
          0 0 0 0 0 0 0 0 0 0 0 0
          0 0 0 0 0 0 0 0 0 0 0 0
          0 0 0 0 0 0 0 0 0 0 0 0
          0 0 0 0 0 0 0 0 0 0 0 0
          0 0 0 0 0 0 0 0 0 0 0 0
          0 0 0 0 0 0 0 0 0 0 0 0
          0 0 0 0 0 0 0 0 0 0 0 0
          0 0 0 0 0 0 0 0 0 0 0 0
          0 0 0 0 0
        </DataArray>
        <DataArray type="Float32" Name="relativePerm_l" NumberOfComponents="1" format="ascii">
          1 1 1 1 1 1 1 1 1 1 1 1
          1 1 1 1 1 1 1 1 1 1 1 1
          1 1 1 1 1 1 1 1 1 1 1 1
          1 1 1 1 1 1 1 1 1 1 1 1
          1 1 1 1 1 1 1 1 1 1 1 1
          1 1 1 1 1 1 1 1 1 1 1 1
          1 1 1 1 1 1 1 1 1 1 1 1
          1 1 1 1 1 1 1 1 1 1 1 1
          1 1 1 1 1 1 1 1 1 1 1 1
          1 1 1 1 1 1 1 1 1 1 1 1
          1 1 1 1 1 1 1 1 1 1 1 1
          1 1 1 1 1 1 1 1 1 1 1 1
          1 1 1 1 1 1 1 1 1 1 1 1
          1 1 1 1 1 1 1 1 1 1 1 1
          1 1 1 1 1 1 1 1 1 1 1 1
          1 1 1 1 1 1 1 1 1 1 1 1
          1 1 1 1 1 1 1 1 1 1 1 1
          1 1 1 1 1 1 1 1 1 1 1 1
          1 1 1 1 1 1 1 1 1 1 1 1
          1 1 1 1 1 1 1 1 1 1 1 1
          1 1 1 1 1 1 1 1 1 1 1 1
          1 1 1 1 1 1 1 1 1 1 1 1
          1 1 1 1 1 1 1 1 1 1 1 1
          1 1 1 1 1 1 1 1 1 1 1 1
          1 1 1 1 1 1 1 1 1 1 1 1
          1 1 1 1 1 1 1 1 1 1 1 1
          1 1 1 1 1 1 1 1 1 1 1 1
          1 1 1 1 1 1 1 1 1 1 1 1
          1 1 1 1 1 1 1 1 1 1 1 1
          1 1 1 1 1 1 1 1 1 1 1 1
          1 1 1 1 1 1 1 1 1 1 1 1
          1 1 1 1 1 1 1 1 1 1 1 1
          1 1 1 1 1 1 1 1 1 1 1 1
          1 1 1 1 1 1 1 1 1 1 1 1
          1 1 1 1 1 1 1 1 1 1 1 1
          1 1 1 1 1
        </DataArray>
        <DataArray type="Float32" Name="relativePerm_g" NumberOfComponents="1" format="ascii">
          0 0 0 0 0 0 0 0 0 0 0 0
          0 0 0 0 0 0 0 0 0 0 0 0
          0 0 0 0 0 0 0 0 0 0 0 0
          0 0 0 0 0 0 0 0 0 0 0 0
          0 0 0 0 0 0 0 0 0 0 0 0
          0 0 0 0 0 0 0 0 0 0 0 0
          0 0 0 0 0 0 0 0 0 0 0 0
          0 0 0 0 0 0 0 0 0 0 0 0
          0 0 0 0 0 0 0 0 0 0 0 0
          0 0 0 0 0 0 0 0 0 0 0 0
          0 0 0 0 0 0 0 0 0 0 0 0
          0 0 0 0 0 0 0 0 0 0 0 0
          0 0 0 0 0 0 0 0 0 0 0 0
          0 0 0 0 0 0 0 0 0 0 0 0
          0 0 0 0 0 0 0 0 0 0 0 0
          0 0 0 0 0 0 0 0 0 0 0 0
          0 0 0 0 0 0 0 0 0 0 0 0
          0 0 0 0 0 0 0 0 0 0 0 0
          0 0 0 0 0 0 0 0 0 0 0 0
          0 0 0 0 0 0 0 0 0 0 0 0
          0 0 0 0 0 0 0 0 0 0 0 0
          0 0 0 0 0 0 0 0 0 0 0 0
          0 0 0 0 0 0 0 0 0 0 0 0
          0 0 0 0 0 0 0 0 0 0 0 0
          0 0 0 0 0 0 0 0 0 0 0 0
          0 0 0 0 0 0 0 0 0 0 0 0
          0 0 0 0 0 0 0 0 0 0 0 0
          0 0 0 0 0 0 0 0 0 0 0 0
          0 0 0 0 0 0 0 0 0 0 0 0
          0 0 0 0 0 0 0 0 0 0 0 0
          0 0 0 0 0 0 0 0 0 0 0 0
          0 0 0 0 0 0 0 0 0 0 0 0
          0 0 0 0 0 0 0 0 0 0 0 0
          0 0 0 0 0 0 0 0 0 0 0 0
          0 0 0 0 0 0 0 0 0 0 0 0
          0 0 0 0 0
        </DataArray>
        <DataArray type="Float32" Name="porosity" NumberOfComponents="1" format="ascii">
          0.3 0.3 0.3 0.3 0.3 0.3 0.3 0.3 0.3 0.3 0.3 0.3
          0.3 0.3 0.3 0.3 0.3 0.3 0.3 0.3 0.3 0.3 0.3 0.3
          0.3 0.3 0.3 0.3 0.3 0.3 0.3 0.3 0.3 0.3 0.3 0.3
          0.3 0.3 0.3 0.3 0.3 0.3 0.3 0.3 0.3 0.3 0.3 0.3
          0.3 0.3 0.3 0.3 0.3 0.3 0.3 0.3 0.3 0.3 0.3 0.3
          0.3 0.3 0.3 0.3 0.3 0.3 0.3 0.3 0.3 0.3 0.3 0.3
          0.3 0.3 0.3 0.3 0.3 0.3 0.3 0.3 0.3 0.3 0.3 0.3
          0.3 0.3 0.3 0.3 0.3 0.3 0.3 0.3 0.3 0.3 0.3 0.3
          0.3 0.3 0.3 0.3 0.3 0.3 0.3 0.3 0.3 0.3 0.3 0.3
          0.3 0.3 0.3 0.3 0.3 0.3 0.3 0.3 0.3 0.3 0.3 0.3
          0.3 0.3 0.3 0.3 0.3 0.3 0.3 0.3 0.3 0.3 0.3 0.3
          0.3 0.3 0.3 0.3 0.3 0.3 0.3 0.3 0.3 0.3 0.3 0.3
          0.3 0.3 0.3 0.3 0.3 0.3 0.3 0.3 0.3 0.3 0.3 0.3
          0.3 0.3 0.3 0.3 0.3 0.3 0.3 0.3 0.3 0.3 0.3 0.3
          0.3 0.3 0.3 0.3 0.3 0.3 0.3 0.3 0.3 0.3 0.3 0.3
          0.3 0.3 0.3 0.3 0.3 0.3 0.3 0.3 0.3 0.3 0.3 0.3
          0.3 0.3 0.3 0.3 0.3 0.3 0.3 0.3 0.3 0.3 0.3 0.3
          0.3 0.3 0.3 0.3 0.3 0.3 0.3 0.3 0.3 0.3 0.3 0.3
          0.3 0.3 0.3 0.3 0.3 0.3 0.3 0.3 0.3 0.3 0.3 0.3
          0.3 0.3 0.3 0.3 0.3 0.3 0.3 0.3 0.3 0.3 0.3 0.3
          0.3 0.3 0.3 0.3 0.3 0.3 0.3 0.3 0.3 0.3 0.3 0.3
          0.3 0.3 0.3 0.3 0.3 0.3 0.3 0.3 0.3 0.3 0.3 0.3
          0.3 0.3 0.3 0.3 0.3 0.3 0.3 0.3 0.3 0.3 0.3 0.3
          0.3 0.3 0.3 0.3 0.3 0.3 0.3 0.3 0.3 0.3 0.3 0.3
          0.3 0.3 0.3 0.3 0.3 0.3 0.3 0.3 0.3 0.3 0.3 0.3
          0.3 0.3 0.3 0.3 0.3 0.3 0.3 0.3 0.3 0.3 0.3 0.3
          0.3 0.3 0.3 0.3 0.3 0.3 0.3 0.3 0.3 0.3 0.3 0.3
          0.3 0.3 0.3 0.3 0.3 0.3 0.3 0.3 0.3 0.3 0.3 0.3
          0.3 0.3 0.3 0.3 0.3 0.3 0.3 0.3 0.3 0.3 0.3 0.3
          0.3 0.3 0.3 0.3 0.3 0.3 0.3 0.3 0.3 0.3 0.3 0.3
          0.3 0.3 0.3 0.3 0.3 0.3 0.3 0.3 0.3 0.3 0.3 0.3
          0.3 0.3 0.3 0.3 0.3 0.3 0.3 0.3 0.3 0.3 0.3 0.3
          0.3 0.3 0.3 0.3 0.3 0.3 0.3 0.3 0.3 0.3 0.3 0.3
          0.3 0.3 0.3 0.3 0.3 0.3 0.3 0.3 0.3 0.3 0.3 0.3
          0.3 0.3 0.3 0.3 0.3 0.3 0.3 0.3 0.3 0.3 0.3 0.3
          0.3 0.3 0.3 0.3 0.3
        </DataArray>
        <DataArray type="Float32" Name="moleFrac_l^Brine" NumberOfComponents="1" format="ascii">
          1 1 1 1 1 1 1 1 1 1 1 1
          1 1 1 1 1 1 1 1 1 1 1 1
          1 1 1 1 1 1 1 1 1 1 1 1
          1 1 1 1 1 1 1 1 1 1 1 1
          1 0.999983 1 1 1 1 1 1 1 1 1 1
          1 1 1 1 1 1 1 1 1 1 1 1
          1 0.999983 0.994562 1 1 1 1 1 1 1 1 1
          1 1 1 1 1 1 1 1 1 1 1 1
          1 1 0.999947 0.989173 1 1 1 1 1 1 1 1
          1 1 1 1 1 1 1 1 1 1 1 1
          1 1 1 0.999943 0.989173 1 1 1 1 1 1 1
          1 1 1 1 1 1 1 1 1 1 1 1
          1 1 1 1 0.999948 0.989173 1 1 1 1 1 1
          1 1 1 1 1 1 1 1 1 1 1 1
          1 1 1 1 1 0.999984 0.994561 1 1 1 1 1
          1 1 1 1 1 1 1 1 1 1 1 1
          1 1 1 1 1 1 1 0.999981 1 1 1 1
          1 1 1 1 1 1 1 1 1 1 1 1
          1 1 1 1 1 1 1 1 1 1 1 1
          1 1 1 1 1 1 1 1 1 1 1 1
          1 1 1 1 1 1 1 1 1 1 1 1
          1 1 1 1 1 1 1 1 1 1 1 1
          1 1 1 1 1 1 1 1 1 1 1 1
          1 1 1 1 1 1 1 1 1 1 1 1
          1 1 1 1 1 1 1 1 1 1 1 1
          1 1 1 1 1 1 1 1 1 1 1 1
          1 1 1 1 1 1 1 1 1 1 1 1
          1 1 1 1 1 1 1 1 1 1 1 1
          1 1 1 1 1 1 1 1 1 1 1 1
          1 1 1 1 1 1 1 1 1 1 1 1
          1 1 1 1 1 1 1 1 1 1 1 1
          1 1 1 1 1 1 1 1 1 1 1 1
          1 1 1 1 1 1 1 1 1 1 1 1
          1 1 1 1 1 1 1 1 1 1 1 1
          1 1 1 1 1 1 1 1 1 1 1 1
          1 1 1 1 1
        </DataArray>
        <DataArray type="Float32" Name="moleFrac_l^CO2" NumberOfComponents="1" format="ascii">
          -7.12243e-34 2.03716e-33 4.64576e-34 -1.39344e-32 -1.87862e-32 2.35983e-32 3.78628e-33 -1.21218e-32 -2.53981e-32 -3.30487e-33 5.67347e-33 -1.53794e-33
          -2.62822e-32 7.89673e-34 -3.92445e-32 -2.58214e-33 1.0935e-32 8.68877e-32 -3.48926e-33 -7.21489e-33 -3.76651e-32 -5.93691e-32 -9.16889e-33 -5.96416e-32
          -1.02423e-31 -7.68981e-32 2.49635e-32 -2.80602e-32 2.13252e-33 5.57458e-32 -1.32861e-32 4.66106e-30 2.36811e-30 2.50767e-27 1.30048e-27 1.39057e-24
          7.3487e-25 7.88519e-22 4.22881e-22 4.51768e-19 2.44563e-19 2.57611e-16 1.3995e-16 1.43473e-13 7.7681e-14 7.61098e-11 4.05629e-11 3.71394e-08
          2.04806e-08 1.69236e-05 -2.57947e-33 -1.93306e-32 -1.37376e-32 -2.62477e-32 1.13729e-32 2.26716e-33 -2.61878e-33 4.61474e-32 -3.68687e-32 -1.26382e-32
          -2.77469e-32 3.40743e-32 4.0574e-34 -6.54804e-32 4.42281e-30 2.43486e-27 1.38362e-24 8.02755e-22 4.68452e-19 2.70664e-16 1.51996e-13 8.09661e-11
          3.94857e-08 1.66354e-05 0.00543771 2.52843e-33 -1.93961e-34 1.05221e-32 6.36211e-33 -3.80744e-32 -5.39745e-32 -1.48845e-32 -9.75414e-34 2.92021e-32
          1.57971e-31 -2.09611e-32 3.85812e-32 -4.50366e-32 -1.19435e-31 1.871e-29 1.04857e-26 6.11522e-24 3.62874e-21 2.15264e-18 1.2527e-15 6.97262e-13
          3.56892e-10 1.57123e-07 5.28218e-05 0.0108266 -1.47626e-34 -9.31118e-35 1.034e-32 -1.91032e-33 -1.24151e-32 -1.06835e-33 -9.92577e-33 -3.64259e-32
          -1.35804e-32 -1.86049e-31 -3.5551e-32 6.71055e-33 -3.24e-32 3.39002e-32 1.83593e-29 1.08896e-26 6.64027e-24 4.08303e-21 2.49026e-18 1.47866e-15
          8.31934e-13 4.24071e-10 1.81177e-07 5.6783e-05 0.0108267 -4.94245e-34 -8.32824e-33 -1.13118e-32 -2.05966e-35 1.41407e-32 2.56639e-32 8.53064e-34
          2.53684e-32 -1.67248e-31 7.99296e-33 -4.65247e-32 1.25528e-31 3.34435e-33 1.79336e-32 1.01662e-29 6.57581e-27 4.27227e-24 2.75681e-21 1.74863e-18
          1.07545e-15 6.27309e-13 3.33995e-10 1.51696e-07 5.2124e-05 0.0108268 2.60459e-33 -5.68695e-33 9.20611e-33 -1.61834e-32 -2.06558e-32 -9.7747e-35