<?xml version="1.0"?>
<VTKFile type="UnstructuredGrid" version="0.1" byte_order="LittleEndian">
  <UnstructuredGrid>
    <Piece NumberOfCells="384" NumberOfPoints="425">
      <PointData Scalars="pressure_l">
        <DataArray type="Float32" Name="pressure_l" NumberOfComponents="1" format="ascii">
          2.63166e+07 2.63216e+07 2.62952e+07 2.62956e+07 2.63234e+07 2.6297e+07 2.63246e+07 2.62982e+07 2.63257e+07 2.62992e+07 2.63266e+07 2.63001e+07
          2.63273e+07 2.63008e+07 2.6328e+07 2.63015e+07 2.63285e+07 2.6302e+07 2.63291e+07 2.63025e+07 2.63298e+07 2.63031e+07 2.63307e+07 2.6304e+07
          2.63318e+07 2.63052e+07 2.6333e+07 2.63065e+07 2.63343e+07 2.63078e+07 2.63355e+07 2.6309e+07 2.63367e+07 2.63102e+07 2.63379e+07 2.63113e+07
          2.6339e+07 2.63124e+07 2.63401e+07 2.63136e+07 2.63412e+07 2.63146e+07 2.63422e+07 2.63157e+07 2.63431e+07 2.63167e+07 2.63438e+07 2.63175e+07
          2.63441e+07 2.63178e+07 2.62692e+07 2.62699e+07 2.62709e+07 2.62719e+07 2.62729e+07 2.62737e+07 2.62745e+07 2.62751e+07 2.62756e+07 2.62757e+07
          2.62761e+07 2.6277e+07 2.62786e+07 2.628e+07 2.62813e+07 2.62825e+07 2.62837e+07 2.62848e+07 2.62859e+07 2.6287e+07 2.62881e+07 2.62892e+07
          2.62904e+07 2.62915e+07 2.62926e+07 2.6243e+07 2.62438e+07 2.62447e+07 2.62457e+07 2.62466e+07 2.62475e+07 2.62483e+07 2.6249e+07 2.62494e+07
          2.62493e+07 2.62496e+07 2.625e+07 2.62521e+07 2.62536e+07 2.62549e+07 2.62561e+07 2.62572e+07 2.62583e+07 2.62594e+07 2.62605e+07 2.62616e+07
          2.62628e+07 2.6264e+07 2.62655e+07 2.62674e+07 2.62168e+07 2.62177e+07 2.62185e+07 2.62195e+07 2.62204e+07 2.62213e+07 2.62222e+07 2.6223e+07
          2.62237e+07 2.62239e+07 2.62242e+07 2.62246e+07 2.6226e+07 2.62274e+07 2.62286e+07 2.62297e+07 2.62308e+07 2.62319e+07 2.62329e+07 2.6234e+07
          2.62351e+07 2.62363e+07 2.62375e+07 2.62391e+07 2.62411e+07 2.61906e+07 2.61914e+07 2.61923e+07 2.61932e+07 2.61942e+07 2.61952e+07 2.61961e+07
          2.61971e+07 2.61981e+07 2.61984e+07 2.61987e+07 2.6199e+07 2.62002e+07 2.62013e+07 2.62023e+07 2.62034e+07 2.62044e+07 2.62054e+07 2.62064e+07
          2.62075e+07 2.62085e+07 2.62096e+07 2.62108e+07 2.62122e+07 2.62141e+07 2.61644e+07 2.61652e+07 2.61661e+07 2.6167e+07 2.6168e+07 2.6169e+07
          2.61701e+07 2.61712e+07 2.61724e+07 2.61728e+07 2.61732e+07 2.61735e+07 2.61743e+07 2.61752e+07 2.61761e+07 2.6177e+07 2.6178e+07 2.61789e+07
          2.61799e+07 2.61809e+07 2.61819e+07 2.61829e+07 2.61839e+07 2.6185e+07 2.61861e+07 2.61381e+07 2.61389e+07 2.61398e+07 2.61407e+07 2.61417e+07
          2.61428e+07 2.6144e+07 2.61453e+07 2.61468e+07 2.61473e+07 2.61477e+07 2.6148e+07 2.61485e+07 2.61491e+07 2.61498e+07 2.61507e+07 2.61515e+07
          2.61524e+07 2.61534e+07 2.61543e+07 2.61552e+07 2.61562e+07 2.6157e+07 2.61577e+07 2.6158e+07 2.61119e+07 2.61126e+07 2.61134e+07 2.61143e+07
          2.61153e+07 2.61165e+07 2.61177e+07 2.61192e+07 2.61211e+07 2.61219e+07 2.61223e+07 2.61226e+07 2.61225e+07 2.61229e+07 2.61235e+07 2.61242e+07
          2.61251e+07 2.61259e+07 2.61268e+07 2.61277e+07 2.61286e+07 2.61295e+07 2.61302e+07 2.61307e+07 2.61309e+07 2.60857e+07 2.60864e+07 2.60872e+07
          2.60882e+07 2.60893e+07 2.60904e+07 2.60918e+07 2.60933e+07 2.60952e+07 2.60961e+07 2.60966e+07 2.60968e+07 2.60966e+07 2.60969e+07 2.60974e+07
          2.6098e+07 2.60987e+07 2.60995e+07 2.61003e+07 2.61011e+07 2.61019e+07 2.61026e+07 2.61032e+07 2.61036e+07 2.61038e+07 2.60595e+07 2.60604e+07
          2.60613e+07 2.60623e+07 2.60635e+07 2.60647e+07 2.60661e+07 2.60677e+07 2.60694e+07 2.60699e+07 2.60703e+07 2.60706e+07 2.60708e+07 2.6071e+07
          2.60714e+07 2.60719e+07 2.60725e+07 2.60731e+07 2.60738e+07 2.60744e+07 2.6075e+07 2.60756e+07 2.6076e+07 2.60763e+07 2.60764e+07 2.60333e+07
          2.60343e+07 2.60353e+07 2.60364e+07 2.60376e+07 2.60388e+07 2.60402e+07 2.60418e+07 2.60434e+07 2.60439e+07 2.60443e+07 2.60446e+07 2.60448e+07
          2.60451e+07 2.60454e+07 2.60457e+07 2.60462e+07 2.60467e+07 2.60472e+07 2.60477e+07 2.60482e+07 2.60487e+07 2.6049e+07 2.60492e+07 2.60493e+07
          2.60071e+07 2.60082e+07 2.60092e+07 2.60103e+07 2.60115e+07 2.60128e+07 2.60142e+07 2.60158e+07 2.60175e+07 2.60181e+07 2.60185e+07 2.60187e+07
          2.60189e+07 2.6019e+07 2.60192e+07 2.60195e+07 2.60198e+07 2.60202e+07 2.60207e+07 2.60211e+07 2.60215e+07 2.60219e+07 2.60221e+07 2.60223e+07
          2.60224e+07 2.59809e+07 2.5982e+07 2.59831e+07 2.59842e+07 2.59854e+07 2.59866e+07 2.5988e+07 2.59896e+07 2.59916e+07 2.59923e+07 2.59929e+07
          2.59931e+07 2.5993e+07 2.59929e+07 2.5993e+07 2.59932e+07 2.59935e+07 2.59938e+07 2.59941e+07 2.59945e+07 2.59948e+07 2.59951e+07 2.59953e+07
          2.59955e+07 2.59955e+07 2.59547e+07 2.5956e+07 2.59571e+07 2.59581e+07 2.59592e+07 2.59604e+07 2.59617e+07 2.59631e+07 2.59646e+07 2.59662e+07
          2.59668e+07 2.59671e+07 2.59666e+07 2.59665e+07 2.59666e+07 2.59668e+07 2.5967e+07 2.59673e+07 2.59676e+07 2.59679e+07 2.59682e+07 2.59684e+07
          2.59686e+07 2.59688e+07 2.59688e+07 2.59287e+07 2.59303e+07 2.59309e+07 2.59318e+07 2.59328e+07 2.5934e+07 2.59352e+07 2.59366e+07 2.59378e+07
          2.5939e+07 2.59397e+07 2.594e+07 2.59401e+07 2.59401e+07 2.59402e+07 2.59403e+07 2.59405e+07 2.59408e+07 2.59411e+07 2.59413e+07 2.59416e+07
          2.59418e+07 2.5942e+07 2.59421e+07 2.59421e+07 2.59074e+07 2.59043e+07 2.59046e+07 2.59054e+07 2.59063e+07 2.59075e+07 2.59087e+07 2.591e+07
          2.59112e+07 2.59123e+07 2.5913e+07 2.59134e+07 2.59135e+07 2.59136e+07 2.59137e+07 2.59138e+07 2.5914e+07 2.59143e+07 2.59145e+07 2.59148e+07
          2.5915e+07 2.59153e+07 2.59154e+07 2.59155e+07 2.59156e+07
        </DataArray>
        <DataArray type="Float32" Name="pressure_g" NumberOfComponents="1" format="ascii">
          2.63216e+07 2.63266e+07 2.63002e+07 2.63006e+07 2.63284e+07 2.6302e+07 2.63296e+07 2.63032e+07 2.63307e+07 2.63042e+07 2.63316e+07 2.63051e+07
          2.63323e+07 2.63058e+07 2.6333e+07 2.63065e+07 2.63335e+07 2.6307e+07 2.63341e+07 2.63075e+07 2.63348e+07 2.63081e+07 2.63357e+07 2.6309e+07
          2.63368e+07 2.63102e+07 2.6338e+07 2.63115e+07 2.63393e+07 2.63128e+07 2.63405e+07 2.6314e+07 2.63417e+07 2.63152e+07 2.63429e+07 2.63163e+07
          2.6344e+07 2.63174e+07 2.63451e+07 2.63186e+07 2.63462e+07 2.63196e+07 2.63472e+07 2.63207e+07 2.63481e+07 2.63217e+07 2.63488e+07 2.63225e+07
          2.63491e+07 2.63228e+07 2.62742e+07 2.62749e+07 2.62759e+07 2.62769e+07 2.62779e+07 2.62787e+07 2.62795e+07 2.62801e+07 2.62806e+07 2.62807e+07
          2.62811e+07 2.6282e+07 2.62836e+07 2.6285e+07 2.62863e+07 2.62875e+07 2.62887e+07 2.62898e+07 2.62909e+07 2.6292e+07 2.62931e+07 2.62942e+07
          2.62954e+07 2.62965e+07 2.62976e+07 2.6248e+07 2.62488e+07 2.62497e+07 2.62507e+07 2.62516e+07 2.62525e+07 2.62533e+07 2.6254e+07 2.62544e+07
          2.62543e+07 2.62546e+07 2.6255e+07 2.62571e+07 2.62586e+07 2.62599e+07 2.62611e+07 2.62622e+07 2.62633e+07 2.62644e+07 2.62655e+07 2.62666e+07
          2.62678e+07 2.6269e+07 2.62705e+07 2.62724e+07 2.62218e+07 2.62227e+07 2.62235e+07 2.62245e+07 2.62254e+07 2.62263e+07 2.62272e+07 2.6228e+07
          2.62287e+07 2.62289e+07 2.62292e+07 2.62296e+07 2.6231e+07 2.62324e+07 2.62336e+07 2.62347e+07 2.62358e+07 2.62369e+07 2.62379e+07 2.6239e+07
          2.62401e+07 2.62413e+07 2.62425e+07 2.62441e+07 2.62461e+07 2.61956e+07 2.61964e+07 2.61973e+07 2.61982e+07 2.61992e+07 2.62002e+07 2.62011e+07
          2.62021e+07 2.62031e+07 2.62034e+07 2.62037e+07 2.6204e+07 2.62052e+07 2.62063e+07 2.62073e+07 2.62084e+07 2.62094e+07 2.62104e+07 2.62114e+07
          2.62125e+07 2.62135e+07 2.62146e+07 2.62158e+07 2.62172e+07 2.62191e+07 2.61694e+07 2.61702e+07 2.61711e+07 2.6172e+07 2.6173e+07 2.6174e+07
          2.61751e+07 2.61762e+07 2.61774e+07 2.61778e+07 2.61782e+07 2.61785e+07 2.61793e+07 2.61802e+07 2.61811e+07 2.6182e+07 2.6183e+07 2.61839e+07
          2.61849e+07 2.61859e+07 2.61869e+07 2.61879e+07 2.61889e+07 2.619e+07 2.61911e+07 2.61431e+07 2.61439e+07 2.61448e+07 2.61457e+07 2.61467e+07
          2.61478e+07 2.6149e+07 2.61503e+07 2.61518e+07 2.61523e+07 2.61527e+07 2.6153e+07 2.61535e+07 2.61541e+07 2.61548e+07 2.61557e+07 2.61565e+07
          2.61574e+07 2.61584e+07 2.61593e+07 2.61602e+07 2.61612e+07 2.6162e+07 2.61627e+07 2.6163e+07 2.61169e+07 2.61176e+07 2.61184e+07 2.61193e+07
          2.61203e+07 2.61215e+07 2.61227e+07 2.61242e+07 2.61261e+07 2.61269e+07 2.61273e+07 2.61276e+07 2.61275e+07 2.61279e+07 2.61285e+07 2.61292e+07
          2.61301e+07 2.61309e+07 2.61318e+07 2.61327e+07 2.61336e+07 2.61345e+07 2.61352e+07 2.61357e+07 2.61359e+07 2.60957e+07 2.60964e+07 2.60972e+07
          2.60982e+07 2.60993e+07 2.61004e+07 2.61018e+07 2.61033e+07 2.61052e+07 2.61061e+07 2.61066e+07 2.61068e+07 2.61066e+07 2.61069e+07 2.61074e+07
          2.6108e+07 2.61087e+07 2.61095e+07 2.61103e+07 2.61111e+07 2.61119e+07 2.61126e+07 2.61132e+07 2.61136e+07 2.61138e+07 2.60695e+07 2.60704e+07
          2.60713e+07 2.60723e+07 2.60735e+07 2.60747e+07 2.60761e+07 2.60777e+07 2.60794e+07 2.60799e+07 2.60803e+07 2.60806e+07 2.60808e+07 2.6081e+07
          2.60814e+07 2.60819e+07 2.60825e+07 2.60831e+07 2.60838e+07 2.60844e+07 2.6085e+07 2.60856e+07 2.6086e+07 2.60863e+07 2.60864e+07 2.60433e+07
          2.60443e+07 2.60453e+07 2.60464e+07 2.60476e+07 2.60488e+07 2.60502e+07 2.60518e+07 2.60534e+07 2.60539e+07 2.60543e+07 2.60546e+07 2.60548e+07
          2.60551e+07 2.60554e+07 2.60557e+07 2.60562e+07 2.60567e+07 2.60572e+07 2.60577e+07 2.60582e+07 2.60587e+07 2.6059e+07 2.60592e+07 2.60593e+07
          2.60171e+07 2.60182e+07 2.60192e+07 2.60203e+07 2.60215e+07 2.60228e+07 2.60242e+07 2.60258e+07 2.60275e+07 2.60281e+07 2.60285e+07 2.60287e+07
          2.60289e+07 2.6029e+07 2.60292e+07 2.60295e+07 2.60298e+07 2.60302e+07 2.60307e+07 2.60311e+07 2.60315e+07 2.60319e+07 2.60321e+07 2.60323e+07
          2.60324e+07 2.59909e+07 2.5992e+07 2.59931e+07 2.59942e+07 2.59954e+07 2.59966e+07 2.5998e+07 2.59996e+07 2.60016e+07 2.60023e+07 2.60029e+07
          2.60031e+07 2.6003e+07 2.60029e+07 2.6003e+07 2.60032e+07 2.60035e+07 2.60038e+07 2.60041e+07 2.60045e+07 2.60048e+07 2.60051e+07 2.60053e+07
          2.60055e+07 2.60055e+07 2.59647e+07 2.5966e+07 2.59671e+07 2.59681e+07 2.59692e+07 2.59704e+07 2.59717e+07 2.59731e+07 2.59746e+07 2.59762e+07
          2.59768e+07 2.59771e+07 2.59766e+07 2.59765e+07 2.59766e+07 2.59768e+07 2.5977e+07 2.59773e+07 2.59776e+07 2.59779e+07 2.59782e+07 2.59784e+07
          2.59786e+07 2.59788e+07 2.59788e+07 2.59387e+07 2.59403e+07 2.59409e+07 2.59418e+07 2.59428e+07 2.5944e+07 2.59452e+07 2.59466e+07 2.59478e+07
          2.5949e+07 2.59497e+07 2.595e+07 2.59501e+07 2.59501e+07 2.59502e+07 2.59503e+07 2.59505e+07 2.59508e+07 2.59511e+07 2.59513e+07 2.59516e+07
          2.59518e+07 2.5952e+07 2.59521e+07 2.59521e+07 2.59174e+07 2.59143e+07 2.59146e+07 2.59154e+07 2.59163e+07 2.59175e+07 2.59187e+07 2.592e+07
          2.59212e+07 2.59223e+07 2.5923e+07 2.59234e+07 2.59235e+07 2.59236e+07 2.59237e+07 2.59238e+07 2.5924e+07 2.59243e+07 2.59245e+07 2.59248e+07
          2.5925e+07 2.59253e+07 2.59254e+07 2.59255e+07 2.59256e+07
        </DataArray>
        <DataArray type="Float32" Name="density_l" NumberOfComponents="1" format="ascii">
          1082.34 1082.34 1082.33 1082.33 1082.34 1082.33 1082.34 1082.33 1082.34 1082.33 1082.34 1082.33
          1082.34 1082.33 1082.34 1082.33 1082.34 1082.33 1082.34 1082.33 1082.34 1082.33 1082.34 1082.33
          1082.34 1082.33 1082.34 1082.33 1082.34 1082.33 1082.35 1082.33 1082.35 1082.33 1082.35 1082.34
          1082.35 1082.34 1082.35 1082.34 1082.35 1082.34 1082.35 1082.34 1082.35 1082.34 1082.35 1082.34
          1082.35 1082.35 1082.32 1082.32 1082.32 1082.32 1082.32 1082.32 1082.32 1082.32 1082.32 1082.32
          1082.32 1082.32 1082.32 1082.32 1082.32 1082.32 1082.32 1082.32 1082.32 1082.33 1082.33 1082.33
          1082.33 1082.33 1084.64 1082.31 1082.31 1082.31 1082.31 1082.31 1082.31 1082.31 1082.31 1082.31
          1019.15 1019.15 1019.15 1082.31 1082.31 1082.31 1082.31 1082.31 1082.31 1082.31 1082.31 1082.31
          1082.32 1082.32 1082.34 1086.89 1082.3 1082.3 1082.3 1082.3 1082.3 1082.3 1082.3 1082.3
          1082.3 1019.14 1019.14 1019.14 1082.3 1082.3 1082.3 1082.3 1082.3 1082.3 1082.3 1082.3
          1082.3 1082.3 1082.3 1082.33 1086.88 1082.28 1082.29 1082.29 1082.29 1082.29 1082.29 1082.29
          1082.29 1082.29 1019.14 1019.14 1019.14 1082.29 1082.29 1082.29 1082.29 1082.29 1082.29 1082.29
          1082.29 1082.29 1082.29 1082.29 1082.32 1086.87 1082.27 1082.27 1082.27 1082.28 1082.28 1082.28
          1082.28 1082.28 1082.28 1019.13 1019.13 1019.13 1082.28 1082.28 1082.28 1082.28 1082.28 1082.28
          1082.28 1082.28 1082.28 1082.28 1082.28 1082.29 1084.6 1082.26 1082.26 1082.26 1082.26 1082.26
          1082.27 1082.27 1082.27 1082.27 1019.12 1019.12 1019.12 1082.27 1082.27 1082.27 1082.27 1082.27
          1082.27 1082.27 1082.27 1082.27 1082.27 1082.27 1082.27 1082.28 1082.25 1082.25 1082.25 1082.25
          1082.25 1082.25 1082.25 1082.26 1082.26 1019.11 1019.11 1019.11 1082.26 1082.26 1082.26 1082.26
          1082.26 1082.26 1082.26 1082.26 1082.26 1082.26 1082.26 1082.26 1082.26 1082.24 1082.24 1082.24
          1082.24 1082.24 1082.24 1082.24 1082.24 1082.25 1019.1 1019.1 1019.1 1082.25 1082.25 1082.25
          1082.25 1082.25 1082.25 1082.25 1082.25 1082.25 1082.25 1082.25 1082.25 1082.25 1082.23 1082.23
          1082.23 1082.23 1082.23 1082.23 1082.23 1082.23 1082.23 1019.09 1019.09 1019.09 1082.24 1082.24
          1082.24 1082.24 1082.24 1082.24 1082.24 1082.24 1082.24 1082.24 1082.24 1082.24 1082.24 1082.22
          1082.22 1082.22 1082.22 1082.22 1082.22 1082.22 1082.22 1082.22 1019.08 1019.08 1019.08 1082.22
          1082.22 1082.22 1082.22 1082.22 1082.22 1082.23 1082.23 1082.23 1082.23 1082.23 1082.23 1082.23
          1082.21 1082.21 1082.21 1082.21 1082.21 1082.21 1082.21 1082.21 1082.21 1019.07 1019.07 1019.07
          1082.21 1082.21 1082.21 1082.21 1082.21 1082.21 1082.21 1082.21 1082.21 1082.21 1082.21 1082.21
          1082.21 1082.2 1082.2 1082.2 1082.2 1082.2 1082.2 1082.2 1082.2 1082.2 1019.06 1019.06
          1019.06 1082.2 1082.2 1082.2 1082.2 1082.2 1082.2 1082.2 1082.2 1082.2 1082.2 1082.2
          1082.2 1082.2 1082.19 1082.19 1082.19 1082.19 1082.19 1082.19 1082.19 1082.19 1082.19 1082.19
          1082.19 1082.19 1082.19 1082.19 1082.19 1082.19 1082.19 1082.19 1082.19 1082.19 1082.19 1082.19
          1082.19 1082.19 1082.19 1082.18 1082.18 1082.18 1082.18 1082.18 1082.18 1082.18 1082.18 1082.18
          1082.18 1082.18 1082.18 1082.18 1082.18 1082.18 1082.18 1082.18 1082.18 1082.18 1082.18 1082.18
          1082.18 1082.18 1082.18 1082.18 1082.17 1082.17 1082.17 1082.17 1082.17 1082.17 1082.17 1082.17
          1082.17 1082.17 1082.17 1082.17 1082.17 1082.17 1082.17 1082.17 1082.17 1082.17 1082.17 1082.17
          1082.17 1082.17 1082.17 1082.17 1082.17
        </DataArray>
        <DataArray type="Float32" Name="density_g" NumberOfComponents="1" format="ascii">
          969.1 969.123 969.004 969.006 969.131 969.012 969.136 969.018 969.141 969.022 969.145 969.026
          969.149 969.03 969.151 969.032 969.154 969.035 969.156 969.037 969.16 969.04 969.164 969.044
          969.169 969.049 969.174 969.055 969.18 969.061 969.185 969.066 969.191 969.071 969.196 969.077
          969.201 969.082 969.206 969.087 969.211 969.091 969.215 969.096 969.219 969.101 969.223 969.104
          969.224 969.106 968.887 968.891 968.895 968.899 968.904 968.908 968.911 968.914 968.916 968.916
          968.919 968.923 968.929 968.936 968.942 968.947 968.952 968.958 968.963 968.967 968.972 968.977
          968.982 968.987 968.993 968.769 968.773 968.777 968.781 968.785 968.789 968.793 968.796 968.798
          526.57 526.575 526.581 968.81 968.817 968.823 968.828 968.833 968.838 968.843 968.848 968.853
          968.858 968.864 968.87 968.879 968.65 968.654 968.658 968.662 968.667 968.671 968.675 968.678
          968.681 526.135 526.139 526.146 968.692 968.698 968.703 968.709 968.714 968.718 968.723 968.728
          968.733 968.738 968.744 968.751 968.76 968.532 968.536 968.54 968.544 968.548 968.552 968.557
          968.561 968.565 525.697 525.703 525.708 968.575 968.58 968.585 968.589 968.594 968.599 968.603
          968.608 968.613 968.618 968.623 968.63 968.638 968.413 968.417 968.421 968.425 968.429 968.434
          968.439 968.444 968.45 525.259 525.265 525.271 968.458 968.462 968.466 968.47 968.475 968.479
          968.483 968.488 968.492 968.497 968.502 968.506 968.511 968.294 968.298 968.302 968.306 968.31
          968.315 968.321 968.327 968.334 524.822 524.829 524.833 968.341 968.344 968.347 968.351 968.355
          968.359 968.363 968.368 968.372 968.376 968.38 968.383 968.384 968.176 968.179 968.182 968.187
          968.191 968.196 968.202 968.209 968.217 524.387 524.395 524.399 968.224 968.225 968.228 968.231
          968.235 968.239 968.243 968.247 968.251 968.255 968.258 968.261 968.262 968.08 968.083 968.087
          968.091 968.096 968.101 968.107 968.114 968.123 524.03 524.039 524.042 968.129 968.13 968.132
          968.135 968.139 968.142 968.146 968.149 968.153 968.156 968.159 968.161 968.162 967.961 967.965
          967.969 967.974 967.979 967.985 967.991 967.998 968.006 523.582 523.589 523.593 968.012 968.013
          968.015 968.017 968.02 968.023 968.026 968.029 968.031 968.034 968.036 968.037 968.038 967.842
          967.846 967.851 967.856 967.861 967.867 967.873 967.88 967.888 523.133 523.14 523.144 967.894
          967.895 967.897 967.898 967.9 967.903 967.905 967.907 967.91 967.912 967.913 967.914 967.915
          967.722 967.727 967.732 967.737 967.742 967.748 967.755 967.762 967.77 522.685 522.692 522.696
          967.776 967.777 967.777 967.779 967.78 967.782 967.784 967.786 967.788 967.79 967.791 967.792
          967.792 967.603 967.608 967.613 967.618 967.623 967.629 967.635 967.643 967.651 522.239 522.249
          522.252 967.658 967.657 967.658 967.659 967.66 967.662 967.663 967.665 967.666 967.668 967.669
          967.669 967.67 967.484 967.49 967.494 967.499 967.504 967.509 967.515 967.522 967.529 967.536
          967.539 967.54 967.538 967.538 967.538 967.539 967.54 967.541 967.542 967.544 967.545 967.546
          967.547 967.548 967.548 967.365 967.373 967.375 967.379 967.384 967.389 967.395 967.401 967.407
          967.412 967.415 967.417 967.417 967.417 967.417 967.418 967.419 967.42 967.422 967.423 967.424
          967.425 967.426 967.426 967.426 967.268 967.254 967.255 967.259 967.263 967.269 967.274 967.28
          967.286 967.29 967.294 967.295 967.296 967.296 967.297 967.297 967.298 967.299 967.301 967.302
          967.303 967.304 967.305 967.305 967.305
        </DataArray>
        <DataArray type="Float32" Name="saturation_l" NumberOfComponents="1" format="ascii">
          1 1 1 1 1 1 1 1 1 1 1 1
          1 1 1 1 1 1 1 1 1 1 1 1
          1 1 1 1 1 1 1 1 1 1 1 1
          1 1 1 1 1 1 1 1 1 1 1 1
          1 1 1 1 1 1 1 1 1 1 1 1
          1 1 1 1 1 1 1 1 1 1 1 1
          1 1 1 1 1 1 1 1 1 1 1 1
          1 1 1 1 1 1 1 1 1 1 1 1
          1 1 1 1 1 1 1 1 1 1 1 1
          1 1 1 1 1 1 1 1 1 1 1 1
          1 1 1 1 1 1 1 1 1 1 1 1
          1 1 1 1 1 1 1 1 1 1 1 1
          1 1 1 1 1 1 1 1 1 1 1 1
          1 1 1 1 1 1 1 1 1 1 1 1
          1 1 1 1 1 1 1 1 1 1 1 1
          1 1 1 1 1 1 1 1 1 1 1 1
          1 1 1 1 1 1 1 1 1 1 1 1
          1 1 1 1 1 1 1 1 1 1 1 1
          1 1 1 1 1 1 1 1 1 1 1 1
          1 1 1 1 1 1 1 1 1 1 1 1
          1 1 1 1 1 1 1 1 1 1 1 1
          1 1 1 1 1 1 1 1 1 1 1 1
          1 1 1 1 1 1 1 1 1 1 1 1
          1 1 1 1 1 1 1 1 1 1 1 1
          1 1 1 1 1 1 1 1 1 1 1 1
          1 1 1 1 1 1 1 1 1 1 1 1
          1 1 1 1 1 1 1 1 1 1 1 1
          1 1 1 1 1 1 1 1 1 1 1 1
          1 1 1 1 1 1 1 1 1 1 1 1
          1 1 1 1 1 1 1 1 1 1 1 1
          1 1 1 1 1 1 1 1 1 1 1 1
          1 1 1 1 1 1 1 1 1 1 1 1
          1 1 1 1 1 1 1 1 1 1 1 1
          1 1 1 1 1 1 1 1 1 1 1 1
          1 1 1 1 1 1 1 1 1 1 1 1
          1 1 1 1 1
        </DataArray>
        <DataArray type="Float32" Name="saturation_g" NumberOfComponents="1" format="ascii">
          0 0 0 0 0 0 0 0 0 0 0 0
          0 0 0 0 0 0 0 0 0 0 0 0
          0 0 0 0 0 0 0 0 0 0 0 0
          0 0 0 0 0 0 0 0 0 0 0 0
          0 0 0 0 0 0 0 0 0 0 0 0
          0 0 0 0 0 0 0 0 0 0 0 0
          0 0 0 0 0 0 0 0 0 0 0 0
          0 0 0 0 0 0 0 0 0 0 0 0
          0 0 0 0 0 0 0 0 0 0 0 0
          0 0 0 0 0 0 0 0 0 0 0 0
          0 0 0 0 0 0 0 0 0 0 0 0
          0 0 0 0 0 0 0 0 0 0 0 0
          0 0 0 0 0 0 0 0 0 0 0 0
          0 0 0 0 0 0 0 0 0 0 0 0
          0 0 0 0 0 0 0 0 0 0 0 0
          0 0 0 0 0 0 0 0 0 0 0 0
          0 0 0 0 0 0 0 0 0 0 0 0
          0 0 0 0 0 0 0 0 0 0 0 0
          0 0 0 0 0 0 0 0 0 0 0 0
          0 0 0 0 0 0 0 0 0 0 0 0
          0 0 0 0 0 0 0 0 0 0 0 0
          0 0 0 0 0 0 0 0 0 0 0 0
          0 0 0 0 0 0 0 0 0 0 0 0
          0 0 0 0 0 0 0 0 0 0 0 0
          0 0 0 0 0 0 0 0 0 0 0 0
          0 0 0 0 0 0 0 0 0 0 0 0
          0 0 0 0 0 0 0 0 0 0 0 0
          0 0 0 0 0 0 0 0 0 0 0 0
          0 0 0 0 0 0 0 0 0 0 0 0
          0 0 0 0 0 0 0 0 0 0 0 0
          0 0 0 0 0 0 0 0 0 0 0 0
          0 0 0 0 0 0 0 0 0 0 0 0
          0 0 0 0 0 0 0 0 0 0 0 0
          0 0 0 0 0 0 0 0 0 0 0 0
          0 0 0 0 0 0 0 0 0 0 0 0
          0 0 0 0 0
        </DataArray>
        <DataArray type="Float32" Name="relativePerm_l" NumberOfComponents="1" format="ascii">
          1 1 1 1 1 1 1 1 1 1 1 1
          1 1 1 1 1 1 1 1 1 1 1 1
          1 1 1 1 1 1 1 1 1 1 1 1
          1 1 1 1 1 1 1 1 1 1 1 1
          1 1 1 1 1 1 1 1 1 1 1 1
          1 1 1 1 1 1 1 1 1 1 1 1
          1 1 1 1 1 1 1 1 1 1 1 1
          1 1 1 1 1 1 1 1 1 1 1 1
          1 1 1 1 1 1 1 1 1 1 1 1
          1 1 1 1 1 1 1 1 1 1 1 1
          1 1 1 1 1 1 1 1 1 1 1 1
          1 1 1 1 1 1 1 1 1 1 1 1
          1 1 1 1 1 1 1 1 1 1 1 1
          1 1 1 1 1 1 1 1 1 1 1 1
          1 1 1 1 1 1 1 1 1 1 1 1
          1 1 1 1 1 1 1 1 1 1 1 1
          1 1 1 1 1 1 1 1 1 1 1 1
          1 1 1 1 1 1 1 1 1 1 1 1
          1 1 1 1 1 1 1 1 1 1 1 1
          1 1 1 1 1 1 1 1 1 1 1 1
          1 1 1 1 1 1 1 1 1 1 1 1
          1 1 1 1 1 1 1 1 1 1 1 1
          1 1 1 1 1 1 1 1 1 1 1 1
          1 1 1 1 1 1 1 1 1 1 1 1
          1 1 1 1 1 1 1 1 1 1 1 1
          1 1 1 1 1 1 1 1 1 1 1 1
          1 1 1 1 1 1 1 1 1 1 1 1
          1 1 1 1 1 1 1 1 1 1 1 1
          1 1 1 1 1 1 1 1 1 1 1 1
          1 1 1 1 1 1 1 1 1 1 1 1
          1 1 1 1 1 1 1 1 1 1 1 1
          1 1 1 1 1 1 1 1 1 1 1 1
          1 1 1 1 1 1 1 1 1 1 1 1
          1 1 1 1 1 1 1 1 1 1 1 1
          1 1 1 1 1 1 1 1 1 1 1 1
          1 1 1 1 1
        </DataArray>
        <DataArray type="Float32" Name="relativePerm_g" NumberOfComponents="1" format="ascii">
          0 0 0 0 0 0 0 0 0 0 0 0
          0 0 0 0 0 0 0 0 0 0 0 0
          0 0 0 0 0 0 0 0 0 0 0 0
          0 0 0 0 0 0 0 0 0 0 0 0
          0 0 0 0 0 0 0 0 0 0 0 0
          0 0 0 0 0 0 0 0 0 0 0 0
          0 0 0 0 0 0 0 0 0 0 0 0
          0 0 0 0 0 0 0 0 0 0 0 0
          0 0 0 0 0 0 0 0 0 0 0 0
          0 0 0 0 0 0 0 0 0 0 0 0
          0 0 0 0 0 0 0 0 0 0 0 0
          0 0 0 0 0 0 0 0 0 0 0 0
          0 0 0 0 0 0 0 0 0 0 0 0
          0 0 0 0 0 0 0 0 0 0 0 0
          0 0 0 0 0 0 0 0 0 0 0 0
          0 0 0 0 0 0 0 0 0 0 0 0
          0 0 0 0 0 0 0 0 0 0 0 0
          0 0 0 0 0 0 0 0 0 0 0 0
          0 0 0 0 0 0 0 0 0 0 0 0
          0 0 0 0 0 0 0 0 0 0 0 0
          0 0 0 0 0 0 0 0 0 0 0 0
          0 0 0 0 0 0 0 0 0 0 0 0
          0 0 0 0 0 0 0 0 0 0 0 0
          0 0 0 0 0 0 0 0 0 0 0 0
          0 0 0 0 0 0 0 0 0 0 0 0
          0 0 0 0 0 0 0 0 0 0 0 0
          0 0 0 0 0 0 0 0 0 0 0 0
          0 0 0 0 0 0 0 0 0 0 0 0
          0 0 0 0 0 0 0 0 0 0 0 0
          0 0 0 0 0 0 0 0 0 0 0 0
          0 0 0 0 0 0 0 0 0 0 0 0
          0 0 0 0 0 0 0 0 0 0 0 0
          0 0 0 0 0 0 0 0 0 0 0 0
          0 0 0 0 0 0 0 0 0 0 0 0
          0 0 0 0 0 0 0 0 0 0 0 0
          0 0 0 0 0
        </DataArray>
        <DataArray type="Float32" Name="porosity" NumberOfComponents="1" format="ascii">
          0.3 0.3 0.3 0.3 0.3 0.3 0.3 0.3 0.3 0.3 0.3 0.3
          0.3 0.3 0.3 0.3 0.3 0.3 0.3 0.3 0.3 0.3 0.3 0.3
          0.3 0.3 0.3 0.3 0.3 0.3 0.3 0.3 0.3 0.3 0.3 0.3
          0.3 0.3 0.3 0.3 0.3 0.3 0.3 0.3 0.3 0.3 0.3 0.3
          0.3 0.3 0.3 0.3 0.3 0.3 0.3 0.3 0.3 0.3 0.3 0.3
          0.3 0.3 0.3 0.3 0.3 0.3 0.3 0.3 0.3 0.3 0.3 0.3
          0.3 0.3 0.3 0.3 0.3 0.3 0.3 0.3 0.3 0.3 0.3 0.3
          0.3 0.3 0.3 0.3 0.3 0.3 0.3 0.3 0.3 0.3 0.3 0.3
          0.3 0.3 0.3 0.3 0.3 0.3 0.3 0.3 0.3 0.3 0.3 0.3
          0.3 0.3 0.3 0.3 0.3 0.3 0.3 0.3 0.3 0.3 0.3 0.3
          0.3 0.3 0.3 0.3 0.3 0.3 0.3 0.3 0.3 0.3 0.3 0.3
          0.3 0.3 0.3 0.3 0.3 0.3 0.3 0.3 0.3 0.3 0.3 0.3
          0.3 0.3 0.3 0.3 0.3 0.3 0.3 0.3 0.3 0.3 0.3 0.3
          0.3 0.3 0.3 0.3 0.3 0.3 0.3 0.3 0.3 0.3 0.3 0.3
          0.3 0.3 0.3 0.3 0.3 0.3 0.3 0.3 0.3 0.3 0.3 0.3
          0.3 0.3 0.3 0.3 0.3 0.3 0.3 0.3 0.3 0.3 0.3 0.3
          0.3 0.3 0.3 0.3 0.3 0.3 0.3 0.3 0.3 0.3 0.3 0.3
          0.3 0.3 0.3 0.3 0.3 0.3 0.3 0.3 0.3 0.3 0.3 0.3
          0.3 0.3 0.3 0.3 0.3 0.3 0.3 0.3 0.3 0.3 0.3 0.3
          0.3 0.3 0.3 0.3 0.3 0.3 0.3 0.3 0.3 0.3 0.3 0.3
          0.3 0.3 0.3 0.3 0.3 0.3 0.3 0.3 0.3 0.3 0.3 0.3
          0.3 0.3 0.3 0.3 0.3 0.3 0.3 0.3 0.3 0.3 0.3 0.3
          0.3 0.3 0.3 0.3 0.3 0.3 0.3 0.3 0.3 0.3 0.3 0.3
          0.3 0.3 0.3 0.3 0.3 0.3 0.3 0.3 0.3 0.3 0.3 0.3
          0.3 0.3 0.3 0.3 0.3 0.3 0.3 0.3 0.3 0.3 0.3 0.3
          0.3 0.3 0.3 0.3 0.3 0.3 0.3 0.3 0.3 0.3 0.3 0.3
          0.3 0.3 0.3 0.3 0.3 0.3 0.3 0.3 0.3 0.3 0.3 0.3
          0.3 0.3 0.3 0.3 0.3 0.3 0.3 0.3 0.3 0.3 0.3 0.3
          0.3 0.3 0.3 0.3 0.3 0.3 0.3 0.3 0.3 0.3 0.3 0.3
          0.3 0.3 0.3 0.3 0.3 0.3 0.3 0.3 0.3 0.3 0.3 0.3
          0.3 0.3 0.3 0.3 0.3 0.3 0.3 0.3 0.3 0.3 0.3 0.3
          0.3 0.3 0.3 0.3 0.3 0.3 0.3 0.3 0.3 0.3 0.3 0.3
          0.3 0.3 0.3 0.3 0.3 0.3 0.3 0.3 0.3 0.3 0.3 0.3
          0.3 0.3 0.3 0.3 0.3 0.3 0.3 0.3 0.3 0.3 0.3 0.3
          0.3 0.3 0.3 0.3 0.3 0.3 0.3 0.3 0.3 0.3 0.3 0.3
          0.3 0.3 0.3 0.3 0.3
        </DataArray>
        <DataArray type="Float32" Name="moleFrac_l^Brine" NumberOfComponents="1" format="ascii">
          0.995 0.995 0.995 0.995 0.995 0.995 0.995 0.995 0.995 0.995 0.995 0.995
          0.995 0.995 0.995 0.995 0.995 0.995 0.995 0.995 0.995 0.995 0.995 0.995
          0.995 0.995 0.995 0.995 0.995 0.995 0.995 0.995 0.995 0.995 0.995 0.995
          0.995 0.995 0.995 0.995 0.995 0.995 0.995 0.995 0.995 0.995 0.995 0.995
          0.995 0.994983 0.995 0.995 0.995 0.995 0.995 0.995 0.995 0.995 0.995 0.995
          0.995 0.995 0.995 0.995 0.995 0.995 0.995 0.995 0.995 0.995 0.995 0.995
          0.995 0.994983 0.989566 0.995 0.995 0.995 0.995 0.995 0.995 0.995 0.995 0.995
          0.995 0.995 0.995 0.995 0.995 0.995 0.995 0.995 0.995 0.995 0.995 0.995
          0.995 0.995 0.994947 0.984181 0.995 0.995 0.995 0.995 0.995 0.995 0.995 0.995
          0.995 0.995 0.995 0.995 0.995 0.995 0.995 0.995 0.995 0.995 0.995 0.995
          0.995 0.995 0.995 0.994943 0.984181 0.995 0.995 0.995 0.995 0.995 0.995 0.995
          0.995 0.995 0.995 0.995 0.995 0.995 0.995 0.995 0.995 0.995 0.995 0.995
          0.995 0.995 0.995 0.995 0.994948 0.984181 0.995 0.995 0.995 0.995 0.995 0.995
          0.995 0.995 0.995 0.995 0.995 0.995 0.995 0.995 0.995 0.995 0.995 0.995
          0.995 0.995 0.995 0.995 0.995 0.994984 0.989565 0.995 0.995 0.995 0.995 0.995
          0.995 0.995 0.995 0.995 0.995 0.995 0.995 0.995 0.995 0.995 0.995 0.995
          0.995 0.995 0.995 0.995 0.995 0.995 0.995 0.994981 0.995 0.995 0.995 0.995
          0.995 0.995 0.995 0.995 0.995 0.995 0.995 0.995 0.995 0.995 0.995 0.995
          0.995 0.995 0.995 0.995 0.995 0.995 0.995 0.995 0.995 0.995 0.995 0.995
          0.995 0.995 0.995 0.995 0.995 0.995 0.995 0.995 0.995 0.995 0.995 0.995
          0.995 0.995 0.995 0.995 0.995 0.995 0.995 0.995 0.995 0.995 0.995 0.995
          0.995 0.995 0.995 0.995 0.995 0.995 0.995 0.995 0.995 0.995 0.995 0.995
          0.995 0.995 0.995 0.995 0.995 0.995 0.995 0.995 0.995 0.995 0.995 0.995
          0.995 0.995 0.995 0.995 0.995 0.995 0.995 0.995 0.995 0.995 0.995 0.995
          0.995 0.995 0.995 0.995 0.995 0.995 0.995 0.995 0.995 0.995 0.995 0.995
          0.995 0.995 0.995 0.995 0.995 0.995 0.995 0.995 0.995 0.995 0.995 0.995
          0.995 0.995 0.995 0.995 0.995 0.995 0.995 0.995 0.995 0.995 0.995 0.995
          0.995 0.995 0.995 0.995 0.995 0.995 0.995 0.995 0.995 0.995 0.995 0.995
          0.995 0.995 0.995 0.995 0.995 0.995 0.995 0.995 0.995 0.995 0.995 0.995
          0.995 0.995 0.995 0.995 0.995 0.995 0.995 0.995 0.995 0.995 0.995 0.995
          0.995 0.995 0.995 0.995 0.995 0.995 0.995 0.995 0.995 0.995 0.995 0.995
          0.995 0.995 0.995 0.995 0.995 0.995 0.995 0.995 0.995 0.995 0.995 0.995
          0.995 0.995 0.995 0.995 0.995 0.995 0.995 0.995 0.995 0.995 0.995 0.995
          0.995 0.995 0.995 0.995 0.995 0.995 0.995 0.995 0.995 0.995 0.995 0.995
          0.995 0.995 0.995 0.995 0.995 0.995 0.995 0.995 0.995 0.995 0.995 0.995
          0.995 0.995 0.995 0.995 0.995
        </DataArray>
        <DataArray type="Float32" Name="moleFrac_l^CO2" NumberOfComponents="1" format="ascii">
          0.005 0.005 0.005 0.005 0.005 0.005 0.005 0.005 0.005 0.005 0.005 0.005
          0.005 0.005 0.005 0.005 0.005 0.005 0.005 0.005 0.005 0.005 0.005 0.005
          0.005 0.005 0.005 0.005 0.005 0.005 0.005 0.005 0.005 0.005 0.005 0.005
          0.005 0.005 0.005 0.005 0.005 0.005 0.005 0.005 0.005 0.005 0.005 0.00500004
          0.00500002 0.00501691 0.005 0.005 0.005 0.005 0.005 0.005 0.005 0.005 0.005 0.005