<?xml version="1.0"?>
<VTKFile type="UnstructuredGrid" version="0.1" byte_order="LittleEndian">
  <UnstructuredGrid>
    <Piece NumberOfCells="384" NumberOfPoints="425">
      <PointData Scalars="pressure_l">
        <DataArray type="Float32" Name="pressure_l" NumberOfComponents="1" format="ascii">
          2.63166e+07 2.63218e+07 2.62952e+07 2.62959e+07 2.63239e+07 2.62975e+07 2.63254e+07 2.6299e+07 2.63267e+07 2.63003e+07 2.63278e+07 2.63014e+07
          2.63289e+07 2.63024e+07 2.63298e+07 2.63033e+07 2.63306e+07 2.63041e+07 2.63314e+07 2.63048e+07 2.63323e+07 2.63057e+07 2.63335e+07 2.63068e+07
          2.63349e+07 2.63083e+07 2.63364e+07 2.63099e+07 2.6338e+07 2.63115e+07 2.63395e+07 2.6313e+07 2.6341e+07 2.63146e+07 2.63426e+07 2.63161e+07
          2.6344e+07 2.63175e+07 2.63455e+07 2.6319e+07 2.63469e+07 2.63204e+07 2.63483e+07 2.63218e+07 2.63495e+07 2.63232e+07 2.63504e+07 2.63242e+07
          2.63508e+07 2.63247e+07 2.62693e+07 2.62702e+07 2.62714e+07 2.62727e+07 2.6274e+07 2.62751e+07 2.62762e+07 2.62771e+07 2.62777e+07 2.6278e+07
          2.62787e+07 2.62798e+07 2.62817e+07 2.62834e+07 2.6285e+07 2.62866e+07 2.62881e+07 2.62896e+07 2.62911e+07 2.62925e+07 2.6294e+07 2.62955e+07
          2.6297e+07 2.62985e+07 2.63001e+07 2.62431e+07 2.62442e+07 2.62453e+07 2.62465e+07 2.62478e+07 2.62489e+07 2.625e+07 2.6251e+07 2.62517e+07
          2.62518e+07 2.62522e+07 2.62527e+07 2.62552e+07 2.6257e+07 2.62587e+07 2.62602e+07 2.62617e+07 2.62632e+07 2.62646e+07 2.62661e+07 2.62676e+07
          2.62691e+07 2.62708e+07 2.62727e+07 2.62757e+07 2.62169e+07 2.6218e+07 2.62192e+07 2.62204e+07 2.62216e+07 2.62228e+07 2.6224e+07 2.62251e+07
          2.62261e+07 2.62264e+07 2.62268e+07 2.62273e+07 2.62291e+07 2.62308e+07 2.62324e+07 2.62339e+07 2.62353e+07 2.62367e+07 2.62382e+07 2.62396e+07
          2.62411e+07 2.62426e+07 2.62444e+07 2.62464e+07 2.62496e+07 2.61907e+07 2.61918e+07 2.6193e+07 2.61942e+07 2.61954e+07 2.61967e+07 2.6198e+07
          2.61992e+07 2.62005e+07 2.62009e+07 2.62013e+07 2.62018e+07 2.62033e+07 2.62047e+07 2.62062e+07 2.62075e+07 2.62089e+07 2.62103e+07 2.62117e+07
          2.62131e+07 2.62145e+07 2.6216e+07 2.62176e+07 2.62195e+07 2.62225e+07 2.61644e+07 2.61656e+07 2.61668e+07 2.6168e+07 2.61693e+07 2.61706e+07
          2.6172e+07 2.61734e+07 2.61749e+07 2.61754e+07 2.61759e+07 2.61763e+07 2.61775e+07 2.61787e+07 2.618e+07 2.61812e+07 2.61825e+07 2.61839e+07
          2.61852e+07 2.61865e+07 2.61879e+07 2.61893e+07 2.61907e+07 2.61921e+07 2.61937e+07 2.61382e+07 2.61393e+07 2.61405e+07 2.61417e+07 2.6143e+07
          2.61444e+07 2.61459e+07 2.61476e+07 2.61494e+07 2.61499e+07 2.61504e+07 2.61508e+07 2.61517e+07 2.61527e+07 2.61537e+07 2.61549e+07 2.61561e+07
          2.61574e+07 2.61587e+07 2.616e+07 2.61612e+07 2.61625e+07 2.61637e+07 2.61646e+07 2.6165e+07 2.6112e+07 2.6113e+07 2.61141e+07 2.61154e+07
          2.61167e+07 2.61182e+07 2.61197e+07 2.61215e+07 2.61237e+07 2.61246e+07 2.61251e+07 2.61255e+07 2.61257e+07 2.61265e+07 2.61274e+07 2.61285e+07
          2.61297e+07 2.61309e+07 2.61322e+07 2.61334e+07 2.61346e+07 2.61358e+07 2.61368e+07 2.61375e+07 2.61378e+07 2.60857e+07 2.60868e+07 2.6088e+07
          2.60893e+07 2.60907e+07 2.60922e+07 2.60938e+07 2.60957e+07 2.60979e+07 2.60988e+07 2.60994e+07 2.60997e+07 2.60998e+07 2.61005e+07 2.61013e+07
          2.61023e+07 2.61034e+07 2.61045e+07 2.61056e+07 2.61067e+07 2.61078e+07 2.61088e+07 2.61096e+07 2.61102e+07 2.61104e+07 2.60596e+07 2.60608e+07
          2.60621e+07 2.60634e+07 2.60649e+07 2.60664e+07 2.60681e+07 2.607e+07 2.6072e+07 2.60726e+07 2.60731e+07 2.60734e+07 2.6074e+07 2.60746e+07
          2.60753e+07 2.60762e+07 2.60771e+07 2.6078e+07 2.6079e+07 2.60799e+07 2.60808e+07 2.60816e+07 2.60822e+07 2.60826e+07 2.60828e+07 2.60334e+07
          2.60347e+07 2.6036e+07 2.60375e+07 2.60389e+07 2.60405e+07 2.60422e+07 2.60441e+07 2.6046e+07 2.60466e+07 2.60471e+07 2.60474e+07 2.60481e+07
          2.60487e+07 2.60493e+07 2.605e+07 2.60507e+07 2.60515e+07 2.60524e+07 2.60531e+07 2.60539e+07 2.60545e+07 2.6055e+07 2.60553e+07 2.60554e+07
          2.60072e+07 2.60086e+07 2.601e+07 2.60114e+07 2.60129e+07 2.60145e+07 2.60162e+07 2.60181e+07 2.60201e+07 2.60208e+07 2.60213e+07 2.60216e+07
          2.60222e+07 2.60226e+07 2.60231e+07 2.60237e+07 2.60244e+07 2.60251e+07 2.60258e+07 2.60264e+07 2.6027e+07 2.60276e+07 2.6028e+07 2.60282e+07
          2.60283e+07 2.5981e+07 2.59824e+07 2.59839e+07 2.59853e+07 2.59868e+07 2.59884e+07 2.599e+07 2.59919e+07 2.59942e+07 2.5995e+07 2.59957e+07
          2.59961e+07 2.59962e+07 2.59965e+07 2.59969e+07 2.59974e+07 2.5998e+07 2.59986e+07 2.59992e+07 2.59998e+07 2.60003e+07 2.60007e+07 2.60011e+07
          2.60013e+07 2.60014e+07 2.59548e+07 2.59564e+07 2.59578e+07 2.59592e+07 2.59606e+07 2.59621e+07 2.59637e+07 2.59654e+07 2.59671e+07 2.5969e+07
          2.59697e+07 2.59701e+07 2.597e+07 2.59702e+07 2.59706e+07 2.5971e+07 2.59716e+07 2.59721e+07 2.59726e+07 2.59732e+07 2.59736e+07 2.5974e+07
          2.59743e+07 2.59745e+07 2.59746e+07 2.59288e+07 2.59308e+07 2.59317e+07 2.59329e+07 2.59343e+07 2.59357e+07 2.59373e+07 2.59389e+07 2.59404e+07
          2.59418e+07 2.59427e+07 2.59432e+07 2.59435e+07 2.59438e+07 2.59442e+07 2.59446e+07 2.59451e+07 2.59456e+07 2.59461e+07 2.59466e+07 2.5947e+07
          2.59474e+07 2.59477e+07 2.59478e+07 2.59479e+07 2.59074e+07 2.59048e+07 2.59054e+07 2.59065e+07 2.59078e+07 2.59093e+07 2.59108e+07 2.59124e+07
          2.59138e+07 2.59151e+07 2.5916e+07 2.59166e+07 2.5917e+07 2.59174e+07 2.59177e+07 2.59182e+07 2.59186e+07 2.59191e+07 2.59196e+07 2.59201e+07
          2.59205e+07 2.59209e+07 2.59211e+07 2.59213e+07 2.59214e+07
        </DataArray>
        <DataArray type="Float32" Name="pressure_g" NumberOfComponents="1" format="ascii">
          2.63216e+07 2.63268e+07 2.63002e+07 2.63009e+07 2.63289e+07 2.63025e+07 2.63304e+07 2.6304e+07 2.63317e+07 2.63053e+07 2.63328e+07 2.63064e+07
          2.63339e+07 2.63074e+07 2.63348e+07 2.63083e+07 2.63356e+07 2.63091e+07 2.63364e+07 2.63098e+07 2.63373e+07 2.63107e+07 2.63385e+07 2.63118e+07
          2.63399e+07 2.63133e+07 2.63414e+07 2.63149e+07 2.6343e+07 2.63165e+07 2.63445e+07 2.6318e+07 2.6346e+07 2.63196e+07 2.63476e+07 2.63211e+07
          2.6349e+07 2.63225e+07 2.63505e+07 2.6324e+07 2.63519e+07 2.63254e+07 2.63533e+07 2.63268e+07 2.63545e+07 2.63282e+07 2.63554e+07 2.63292e+07
          2.63558e+07 2.63297e+07 2.62743e+07 2.62752e+07 2.62764e+07 2.62777e+07 2.6279e+07 2.62801e+07 2.62812e+07 2.62821e+07 2.62827e+07 2.6283e+07
          2.62837e+07 2.62848e+07 2.62867e+07 2.62884e+07 2.629e+07 2.62916e+07 2.62931e+07 2.62946e+07 2.62961e+07 2.62975e+07 2.6299e+07 2.63005e+07
          2.6302e+07 2.63035e+07 2.63052e+07 2.62481e+07 2.62492e+07 2.62503e+07 2.62515e+07 2.62528e+07 2.62539e+07 2.6255e+07 2.6256e+07 2.62567e+07
          2.62568e+07 2.62572e+07 2.62577e+07 2.62602e+07 2.6262e+07 2.62637e+07 2.62652e+07 2.62667e+07 2.62682e+07 2.62696e+07 2.62711e+07 2.62726e+07
          2.62741e+07 2.62758e+07 2.62777e+07 2.62808e+07 2.62219e+07 2.6223e+07 2.62242e+07 2.62254e+07 2.62266e+07 2.62278e+07 2.6229e+07 2.62301e+07
          2.62311e+07 2.62314e+07 2.62318e+07 2.62323e+07 2.62341e+07 2.62358e+07 2.62374e+07 2.62389e+07 2.62403e+07 2.62417e+07 2.62432e+07 2.62446e+07
          2.62461e+07 2.62476e+07 2.62494e+07 2.62514e+07 2.62547e+07 2.61957e+07 2.61968e+07 2.6198e+07 2.61992e+07 2.62004e+07 2.62017e+07 2.6203e+07
          2.62042e+07 2.62055e+07 2.62059e+07 2.62063e+07 2.62068e+07 2.62083e+07 2.62097e+07 2.62112e+07 2.62125e+07 2.62139e+07 2.62153e+07 2.62167e+07
          2.62181e+07 2.62195e+07 2.6221e+07 2.62226e+07 2.62245e+07 2.62276e+07 2.61694e+07 2.61706e+07 2.61718e+07 2.6173e+07 2.61743e+07 2.61756e+07
          2.6177e+07 2.61784e+07 2.61799e+07 2.61804e+07 2.61809e+07 2.61813e+07 2.61825e+07 2.61837e+07 2.6185e+07 2.61862e+07 2.61875e+07 2.61889e+07
          2.61902e+07 2.61915e+07 2.61929e+07 2.61943e+07 2.61957e+07 2.61971e+07 2.61988e+07 2.61432e+07 2.61443e+07 2.61455e+07 2.61467e+07 2.6148e+07
          2.61494e+07 2.61509e+07 2.61526e+07 2.61544e+07 2.61549e+07 2.61554e+07 2.61558e+07 2.61567e+07 2.61577e+07 2.61587e+07 2.61599e+07 2.61611e+07
          2.61624e+07 2.61637e+07 2.6165e+07 2.61662e+07 2.61675e+07 2.61687e+07 2.61696e+07 2.617e+07 2.6117e+07 2.6118e+07 2.61191e+07 2.61204e+07
          2.61217e+07 2.61232e+07 2.61247e+07 2.61265e+07 2.61287e+07 2.61296e+07 2.61301e+07 2.61305e+07 2.61307e+07 2.61315e+07 2.61324e+07 2.61335e+07
          2.61347e+07 2.61359e+07 2.61372e+07 2.61384e+07 2.61396e+07 2.61408e+07 2.61418e+07 2.61425e+07 2.61428e+07 2.60957e+07 2.60968e+07 2.6098e+07
          2.60993e+07 2.61007e+07 2.61022e+07 2.61038e+07 2.61057e+07 2.61079e+07 2.61088e+07 2.61094e+07 2.61097e+07 2.61098e+07 2.61105e+07 2.61113e+07
          2.61123e+07 2.61134e+07 2.61145e+07 2.61156e+07 2.61167e+07 2.61178e+07 2.61188e+07 2.61196e+07 2.61202e+07 2.61204e+07 2.60696e+07 2.60708e+07
          2.60721e+07 2.60734e+07 2.60749e+07 2.60764e+07 2.60781e+07 2.608e+07 2.6082e+07 2.60826e+07 2.60831e+07 2.60834e+07 2.6084e+07 2.60846e+07
          2.60853e+07 2.60862e+07 2.60871e+07 2.6088e+07 2.6089e+07 2.60899e+07 2.60908e+07 2.60916e+07 2.60922e+07 2.60926e+07 2.60928e+07 2.60434e+07
          2.60447e+07 2.6046e+07 2.60475e+07 2.60489e+07 2.60505e+07 2.60522e+07 2.60541e+07 2.6056e+07 2.60566e+07 2.60571e+07 2.60574e+07 2.60581e+07
          2.60587e+07 2.60593e+07 2.606e+07 2.60607e+07 2.60615e+07 2.60624e+07 2.60631e+07 2.60639e+07 2.60645e+07 2.6065e+07 2.60653e+07 2.60654e+07
          2.60172e+07 2.60186e+07 2.602e+07 2.60214e+07 2.60229e+07 2.60245e+07 2.60262e+07 2.60281e+07 2.60301e+07 2.60308e+07 2.60313e+07 2.60316e+07
          2.60322e+07 2.60326e+07 2.60331e+07 2.60337e+07 2.60344e+07 2.60351e+07 2.60358e+07 2.60364e+07 2.6037e+07 2.60376e+07 2.6038e+07 2.60382e+07
          2.60383e+07 2.5991e+07 2.59924e+07 2.59939e+07 2.59953e+07 2.59968e+07 2.59984e+07 2.6e+07 2.60019e+07 2.60042e+07 2.6005e+07 2.60057e+07
          2.60061e+07 2.60062e+07 2.60065e+07 2.60069e+07 2.60074e+07 2.6008e+07 2.60086e+07 2.60092e+07 2.60098e+07 2.60103e+07 2.60107e+07 2.60111e+07
          2.60113e+07 2.60114e+07 2.59648e+07 2.59664e+07 2.59678e+07 2.59692e+07 2.59706e+07 2.59721e+07 2.59737e+07 2.59754e+07 2.59771e+07 2.5979e+07
          2.59797e+07 2.59801e+07 2.598e+07 2.59802e+07 2.59806e+07 2.5981e+07 2.59816e+07 2.59821e+07 2.59826e+07 2.59832e+07 2.59836e+07 2.5984e+07
          2.59843e+07 2.59845e+07 2.59846e+07 2.59388e+07 2.59408e+07 2.59417e+07 2.59429e+07 2.59443e+07 2.59457e+07 2.59473e+07 2.59489e+07 2.59504e+07
          2.59518e+07 2.59527e+07 2.59532e+07 2.59535e+07 2.59538e+07 2.59542e+07 2.59546e+07 2.59551e+07 2.59556e+07 2.59561e+07 2.59566e+07 2.5957e+07
          2.59574e+07 2.59577e+07 2.59578e+07 2.59579e+07 2.59174e+07 2.59148e+07 2.59154e+07 2.59165e+07 2.59178e+07 2.59193e+07 2.59208e+07 2.59224e+07
          2.59238e+07 2.59251e+07 2.5926e+07 2.59266e+07 2.5927e+07 2.59274e+07 2.59277e+07 2.59282e+07 2.59286e+07 2.59291e+07 2.59296e+07 2.59301e+07
          2.59305e+07 2.59309e+07 2.59311e+07 2.59313e+07 2.59314e+07
        </DataArray>
        <DataArray type="Float32" Name="density_l" NumberOfComponents="1" format="ascii">
          1080.19 1080.19 1080.18 1080.18 1080.19 1080.18 1080.19 1080.18 1080.19 1080.18 1080.19 1080.18
          1080.19 1080.18 1080.19 1080.18 1080.19 1080.18 1080.19 1080.18 1080.2 1080.18 1080.2 1080.18
          1080.2 1080.18 1080.2 1080.19 1080.2 1080.19 1080.2 1080.19 1080.2 1080.19 1080.2 1080.19
          1080.2 1080.19 1080.2 1080.19 1080.2 1080.19 1080.2 1080.19 1080.2 1080.19 1080.2 1080.19
          1080.2 1080.19 1080.17 1080.17 1080.17 1080.17 1080.17 1080.17 1080.17 1080.17 1080.17 1080.15
          1080.15 1080.15 1080.17 1080.17 1080.18 1080.18 1080.18 1080.18 1080.18 1080.18 1080.18 1080.18
          1080.18 1080.18 1080.18 1080.16 1080.16 1080.16 1080.16 1080.16 1080.16 1080.16 1080.16 1080.13
          1017.27 1017.26 1017.72 1080.14 1080.16 1080.16 1080.16 1080.17 1080.17 1080.17 1080.17 1080.17
          1080.17 1080.17 1080.17 1080.17 1080.15 1080.15 1080.15 1080.15 1080.15 1080.15 1080.15 1080.15
          1080.08 1017.12 1017.05 1017.4 1080.13 1080.15 1080.15 1080.15 1080.15 1080.15 1080.16 1080.16
          1080.16 1080.16 1080.16 1080.16 1080.16 1080.14 1080.14 1080.14 1080.14 1080.14 1080.14 1080.14
          1080.14 1080.05 1017.11 1017.04 1017.33 1080.12 1080.14 1080.14 1080.14 1080.14 1080.14 1080.14
          1080.14 1080.15 1080.15 1080.15 1080.15 1080.15 1080.12 1080.12 1080.13 1080.13 1080.13 1080.13
          1080.13 1080.13 1080.03 1017.1 1017.03 1017.28 1080.1 1080.13 1080.13 1080.13 1080.13 1080.13
          1080.13 1080.13 1080.13 1080.13 1080.14 1080.14 1080.14 1080.11 1080.11 1080.11 1080.11 1080.12
          1080.12 1080.12 1080.12 1080 1017.09 1017.02 1017.21 1080.09 1080.12 1080.12 1080.12 1080.12
          1080.12 1080.12 1080.12 1080.12 1080.12 1080.12 1080.12 1080.12 1080.1 1080.1 1080.1 1080.1
          1080.1 1080.11 1080.11 1080.11 1079.95 1017.08 1017.01 1017.12 1080.08 1080.11 1080.11 1080.11
          1080.11 1080.11 1080.11 1080.11 1080.11 1080.11 1080.11 1080.11 1080.11 1080.09 1080.09 1080.09
          1080.09 1080.09 1080.09 1080.09 1080.1 1080.06 1017.08 1017 1017.08 1080.07 1080.1 1080.1
          1080.1 1080.1 1080.1 1080.1 1080.1 1080.1 1080.1 1080.1 1080.1 1080.1 1080.08 1080.08
          1080.08 1080.08 1080.08 1080.08 1080.08 1080.08 1080.05 1017.07 1016.99 1017.07 1080.06 1080.09
          1080.09 1080.09 1080.09 1080.09 1080.09 1080.09 1080.09 1080.09 1080.09 1080.09 1080.09 1080.07
          1080.07 1080.07 1080.07 1080.07 1080.07 1080.07 1080.07 1080.04 1017.06 1016.98 1017.07 1080.05
          1080.08 1080.08 1080.08 1080.08 1080.08 1080.08 1080.08 1080.08 1080.08 1080.08 1080.08 1080.08
          1080.06 1080.06 1080.06 1080.06 1080.06 1080.06 1080.06 1080.06 1080.03 1017.05 1016.97 1017.05
          1080.04 1080.06 1080.07 1080.07 1080.07 1080.07 1080.07 1080.07 1080.07 1080.07 1080.07 1080.07
          1080.07 1080.05 1080.05 1080.05 1080.05 1080.05 1080.05 1080.05 1080.05 1080.02 1017.09 1017.04
          1017.1 1080.03 1080.05 1080.05 1080.05 1080.05 1080.05 1080.06 1080.06 1080.06 1080.06 1080.06
          1080.06 1080.06 1080.04 1080.04 1080.04 1080.04 1080.04 1080.04 1080.04 1080.04 1080.04 1080.02
          1080.01 1080.02 1080.04 1080.04 1080.04 1080.04 1080.04 1080.04 1080.04 1080.04 1080.04 1080.04
          1080.04 1080.04 1080.04 1080.03 1080.03 1080.03 1080.03 1080.03 1080.03 1080.03 1080.03 1080.03
          1080.03 1080.03 1080.03 1080.03 1080.03 1080.03 1080.03 1080.03 1080.03 1080.03 1080.03 1080.03
          1080.03 1080.03 1080.03 1080.03 1080.02 1080.02 1080.02 1080.02 1080.02 1080.02 1080.02 1080.02
          1080.02 1080.02 1080.02 1080.02 1080.02 1080.02 1080.02 1080.02 1080.02 1080.02 1080.02 1080.02
          1080.02 1080.02 1080.02 1080.02 1080.02
        </DataArray>
        <DataArray type="Float32" Name="density_g" NumberOfComponents="1" format="ascii">
          969.101 969.124 969.004 969.007 969.133 969.015 969.14 969.021 969.146 969.027 969.151 969.032
          969.155 969.036 969.159 969.04 969.163 969.044 969.166 969.047 969.17 969.051 969.176 969.056
          969.182 969.062 969.189 969.07 969.196 969.077 969.203 969.084 969.209 969.091 969.216 969.097
          969.223 969.104 969.229 969.11 969.236 969.117 969.242 969.123 969.247 969.129 969.251 969.134
          969.253 969.136 968.887 968.892 968.897 968.903 968.909 968.914 968.918 968.922 968.845 968.685
          968.608 968.694 968.863 968.951 968.958 968.965 968.972 968.978 968.985 968.991 968.998 969.004
          969.011 969.018 969.025 968.769 968.774 968.779 968.785 968.79 968.795 968.8 968.804 968.353
          527.508 527.466 529.38 968.583 968.832 968.839 968.846 968.853 968.859 968.866 968.872 968.879
          968.886 968.893 968.902 968.916 968.65 968.656 968.661 968.666 968.672 968.677 968.682 968.686
          967.794 526.489 526.187 527.638 968.384 968.713 968.72 968.727 968.733 968.74 968.746 968.753
          968.759 968.766 968.774 968.783 968.798 968.532 968.537 968.542 968.548 968.553 968.559 968.565
          968.569 967.473 526.051 525.749 526.97 968.267 968.595 968.602 968.608 968.614 968.62 968.626
          968.633 968.639 968.646 968.653 968.661 968.675 968.413 968.418 968.424 968.429 968.435 968.441
          968.447 968.451 967.206 525.614 525.312 526.356 968.15 968.477 968.483 968.489 968.495 968.5
          968.506 968.512 968.519 968.525 968.531 968.538 968.545 968.294 968.3 968.305 968.31 968.316
          968.323 968.329 968.333 966.841 525.177 524.876 525.693 968.033 968.359 968.364 968.37 968.375
          968.381 968.387 968.392 968.398 968.404 968.409 968.413 968.415 968.176 968.18 968.186 968.191
          968.197 968.204 968.211 968.214 966.177 524.742 524.442 524.921 967.904 968.241 968.245 968.25
          968.256 968.261 968.267 968.272 968.278 968.283 968.287 968.291 968.292 968.08 968.085 968.09
          968.096 968.102 968.109 968.116 968.124 967.636 524.387 524.085 524.414 967.818 968.146 968.15
          968.154 968.159 968.164 968.169 968.174 968.179 968.183 968.187 968.19 968.191 967.961 967.967
          967.973 967.979 967.985 967.992 968 968.008 967.566 523.939 523.636 523.984 967.702 968.029
          968.032 968.036 968.04 968.044 968.049 968.053 968.057 968.06 968.063 968.065 968.066 967.842
          967.848 967.854 967.86 967.867 967.874 967.882 967.89 967.459 523.49 523.187 523.54 967.584
          967.911 967.914 967.917 967.92 967.924 967.928 967.931 967.935 967.937 967.94 967.941 967.942
          967.723 967.729 967.735 967.742 967.749 967.756 967.764 967.772 967.33 523.042 522.74 523.084
          967.466 967.792 967.795 967.797 967.8 967.804 967.807 967.81 967.812 967.815 967.817 967.818
          967.818 967.603 967.61 967.617 967.623 967.63 967.637 967.644 967.652 967.231 522.83 522.608
          522.854 967.424 967.673 967.675 967.678 967.68 967.683 967.686 967.688 967.691 967.693 967.694
          967.695 967.695 967.484 967.491 967.498 967.504 967.51 967.517 967.524 967.532 967.459 967.21
          967.169 967.254 967.472 967.554 967.555 967.557 967.56 967.562 967.565 967.567 967.569 967.571
          967.572 967.573 967.573 967.366 967.374 967.379 967.384 967.39 967.397 967.404 967.411 967.418
          967.424 967.428 967.431 967.432 967.434 967.435 967.437 967.439 967.442 967.444 967.446 967.448
          967.45 967.451 967.452 967.452 967.268 967.256 967.259 967.264 967.27 967.276 967.283 967.29
          967.297 967.303 967.307 967.31 967.311 967.313 967.315 967.317 967.319 967.321 967.323 967.325
          967.327 967.329 967.33 967.331 967.331
        </DataArray>
        <DataArray type="Float32" Name="saturation_l" NumberOfComponents="1" format="ascii">
          1 1 1 1 1 1 1 1 1 1 1 1
          1 1 1 1 1 1 1 1 1 1 1 1
          1 1 1 1 1 1 1 1 1 1 1 1
          1 1 1 1 1 1 1 1 1 1 1 1
          1 1 1 1 1 1 1 1 1 1 1 1
          1 1 1 1 1 1 1 1 1 1 1 1
          1 1 0.986241 1 1 1 1 1 1 1 1 1
          1 1 1 1 1 1 1 1 1 1 1 1
          1 1 0.999996 0.97249 1 1 1 1 1 1 1 1
          1 1 1 1 1 1 1 1 1 1 1 1
          1 1 1 0.999995 0.972485 1 1 1 1 1 1 1
          1 1 1 1 1 1 1 1 1 1 1 1
          1 1 1 1 0.999996 0.972482 1 1 1 1 1 1
          1 1 1 1 1 1 1 1 1 1 1 1
          1 1 1 1 1 1 0.986228 1 1 1 1 1
          1 1 1 1 1 1 1 1 1 1 1 1
          1 1 1 1 1 1 1 0.999999 1 1 1 1
          1 1 1 1 1 1 1 1 1 1 1 1
          1 1 1 1 1 1 1 1 1 1 1 1
          1 1 1 1 1 1 1 1 1 1 1 1
          1 1 1 1 1 1 1 1 1 1 1 1
          1 1 1 1 1 1 1 1 1 1 1 1
          1 1 1 1 1 1 1 1 1 1 1 1
          1 1 1 1 1 1 1 1 1 1 1 1
          1 1 1 1 1 1 1 1 1 1 1 1
          1 1 1 1 1 1 1 1 1 1 1 1
          1 1 1 1 1 1 1 1 1 1 1 1
          1 1 1 1 1 1 1 1 1 1 1 1
          1 1 1 1 1 1 1 1 1 1 1 1
          1 1 1 1 1 1 1 1 1 1 1 1
          1 1 1 1 1 1 1 1 1 1 1 1
          1 1 1 1 1 1 1 1 1 1 1 1
          1 1 1 1 1 1 1 1 1 1 1 1
          1 1 1 1 1 1 1 1 1 1 1 1
          1 1 1 1 1 1 1 1 1 1 1 1
          1 1 1 1 1
        </DataArray>
        <DataArray type="Float32" Name="saturation_g" NumberOfComponents="1" format="ascii">
          0 0 0 0 0 0 0 0 0 0 0 0
          0 0 0 0 0 0 0 0 0 0 0 0
          0 0 0 0 0 0 0 0 0 0 0 0
          0 0 0 0 0 0 0 0 0 0 0 0
          0 0 0 0 0 0 0 0 0 0 0 0
          0 0 0 0 0 0 0 0 0 0 0 0
          0 3.13808e-07 0.0137587 0 0 0 0 0 0 0 0 0
          0 0 0 0 0 0 0 0 0 0 0 0
          0 0 4.28646e-06 0.0275102 0 0 0 0 0 0 0 0
          0 0 0 0 0 0 0 0 0 0 0 0
          0 0 0 4.67039e-06 0.0275149 0 0 0 0 0 0 0
          0 0 0 0 0 0 0 0 0 0 0 0
          0 0 0 0 4.27776e-06 0.0275183 0 0 0 0 0 0
          0 0 0 0 0 0 0 0 0 0 0 0
          0 0 0 0 0 3.10241e-07 0.0137719 0 0 0 0 0
          0 0 0 0 0 0 0 0 0 0 0 0
          0 0 0 0 0 0 0 8.78588e-07 0 0 0 0
          0 0 0 0 0 0 0 0 0 0 0 0
          0 0 0 0 0 0 0 0 0 0 0 0
          0 0 0 0 0 0 0 0 0 0 0 0
          0 0 0 0 0 0 0 0 0 0 0 0
          0 0 0 0 0 0 0 0 0 0 0 0
          0 0 0 0 0 0 0 0 0 0 0 0
          0 0 0 0 0 0 0 0 0 0 0 0
          0 0 0 0 0 0 0 0 0 0 0 0
          0 0 0 0 0 0 0 0 0 0 0 0
          0 0 0 0 0 0 0 0 0 0 0 0
          0 0 0 0 0 0 0 0 0 0 0 0
          0 0 0 0 0 0 0 0 0 0 0 0
          0 0 0 0 0 0 0 0 0 0 0 0
          0 0 0 0 0 0 0 0 0 0 0 0
          0 0 0 0 0 0 0 0 0 0 0 0
          0 0 0 0 0 0 0 0 0 0 0 0
          0 0 0 0 0 0 0 0 0 0 0 0
          0 0 0 0 0 0 0 0 0 0 0 0
          0 0 0 0 0
        </DataArray>
        <DataArray type="Float32" Name="relativePerm_l" NumberOfComponents="1" format="ascii">
          1 1 1 1 1 1 1 1 1 1 1 1
          1 1 1 1 1 1 1 1 1 1 1 1
          1 1 1 1 1 1 1 1 1 1 1 1
          1 1 1 1 1 1 1 1 1 1 1 1
          1 1 1 1 1 1 1 1 1 1 1 1
          1 1 1 1 1 1 1 1 1 1 1 1
          1 0.999998 0.932961 1 1 1 1 1 1 1 1 1
          1 1 1 1 1 1 1 1 1 1 1 1
          1 1 0.999979 0.869383 1 1 1 1 1 1 1 1
          1 1 1 1 1 1 1 1 1 1 1 1
          1 1 1 0.999977 0.869362 1 1 1 1 1 1 1
          1 1 1 1 1 1 1 1 1 1 1 1
          1 1 1 1 0.999979 0.869346 1 1 1 1 1 1
          1 1 1 1 1 1 1 1 1 1 1 1
          1 1 1 1 1 0.999998 0.932898 1 1 1 1 1
          1 1 1 1 1 1 1 1 1 1 1 1
          1 1 1 1 1 1 1 0.999996 1 1 1 1
          1 1 1 1 1 1 1 1 1 1 1 1
          1 1 1 1 1 1 1 1 1 1 1 1
          1 1 1 1 1 1 1 1 1 1 1 1
          1 1 1 1 1 1 1 1 1 1 1 1
          1 1 1 1 1 1 1 1 1 1 1 1
          1 1 1 1 1 1 1 1 1 1 1 1
          1 1 1 1 1 1 1 1 1 1 1 1
          1 1 1 1 1 1 1 1 1 1 1 1
          1 1 1 1 1 1 1 1 1 1 1 1
          1 1 1 1 1 1 1 1 1 1 1 1
          1 1 1 1 1 1 1 1 1 1 1 1
          1 1 1 1 1 1 1 1 1 1 1 1
          1 1 1 1 1 1 1 1 1 1 1 1
          1 1 1 1 1 1 1 1 1 1 1 1
          1 1 1 1 1 1 1 1 1 1 1 1
          1 1 1 1 1 1 1 1 1 1 1 1
          1 1 1 1 1 1 1 1 1 1 1 1
          1 1 1 1 1 1 1 1 1 1 1 1
          1 1 1 1 1
        </DataArray>
        <DataArray type="Float32" Name="relativePerm_g" NumberOfComponents="1" format="ascii">
          0 0 0 0 0 0 0 0 0 0 0 0
          0 0 0 0 0 0 0 0 0 0 0 0
          0 0 0 0 0 0 0 0 0 0 0 0
          0 0 0 0 0 0 0 0 0 0 0 0
          0 0 0 0 0 0 0 0 0 0 0 0
          0 0 0 0 0 0 0 0 0 0 0 0
          0 1.20712e-19 1.00866e-05 0 0 0 0 0 0 0 0 0
          0 0 0 0 0 0 0 0 0 0 0 0
          0 0 3.07649e-16 7.993e-05 0 0 0 0 0 0 0 0
          0 0 0 0 0 0 0 0 0 0 0 0
          0 0 0 3.9794e-16 7.99704e-05 0 0 0 0 0 0 0
          0 0 0 0 0 0 0 0 0 0 0 0
          0 0 0 0 3.05779e-16 8.00002e-05 0 0 0 0 0 0
          0 0 0 0 0 0 0 0 0 0 0 0
          0 0 0 0 0 1.16643e-19 1.01155e-05 0 0 0 0 0
          0 0 0 0 0 0 0 0 0 0 0 0
          0 0 0 0 0 0 0 2.64921e-18 0 0 0 0
          0 0 0 0 0 0 0 0 0 0 0 0
          0 0 0 0 0 0 0 0 0 0 0 0
          0 0 0 0 0 0 0 0 0 0 0 0
          0 0 0 0 0 0 0 0 0 0 0 0
          0 0 0 0 0 0 0 0 0 0 0 0
          0 0 0 0 0 0 0 0 0 0 0 0
          0 0 0 0 0 0 0 0 0 0 0 0
          0 0 0 0 0 0 0 0 0 0 0 0
          0 0 0 0 0 0 0 0 0 0 0 0
          0 0 0 0 0 0 0 0 0 0 0 0
          0 0 0 0 0 0 0 0 0 0 0 0
          0 0 0 0 0 0 0 0 0 0 0 0
          0 0 0 0 0 0 0 0 0 0 0 0
          0 0 0 0 0 0 0 0 0 0 0 0
          0 0 0 0 0 0 0 0 0 0 0 0
          0 0 0 0 0 0 0 0 0 0 0 0
          0 0 0 0 0 0 0 0 0 0 0 0
          0 0 0 0 0 0 0 0 0 0 0 0
          0 0 0 0 0
        </DataArray>
        <DataArray type="Float32" Name="porosity" NumberOfComponents="1" format="ascii">
          0.3 0.3 0.3 0.3 0.3 0.3 0.3 0.3 0.3 0.3 0.3 0.3
          0.3 0.3 0.3 0.3 0.3 0.3 0.3 0.3 0.3 0.3 0.3 0.3
          0.3 0.3 0.3 0.3 0.3 0.3 0.3 0.3 0.3 0.3 0.3 0.3
          0.3 0.3 0.3 0.3 0.3 0.3 0.3 0.3 0.3 0.3 0.3 0.3
          0.3 0.3 0.3 0.3 0.3 0.3 0.3 0.3 0.3 0.3 0.3 0.3
          0.3 0.3 0.3 0.3 0.3 0.3 0.3 0.3 0.3 0.3 0.3 0.3
          0.3 0.3 0.3 0.3 0.3 0.3 0.3 0.3 0.3 0.3 0.3 0.3
          0.3 0.3 0.3 0.3 0.3 0.3 0.3 0.3 0.3 0.3 0.3 0.3
          0.3 0.3 0.3 0.3 0.3 0.3 0.3 0.3 0.3 0.3 0.3 0.3
          0.3 0.3 0.3 0.3 0.3 0.3 0.3 0.3 0.3 0.3 0.3 0.3
          0.3 0.3 0.3 0.3 0.3 0.3 0.3 0.3 0.3 0.3 0.3 0.3
          0.3 0.3 0.3 0.3 0.3 0.3 0.3 0.3 0.3 0.3 0.3 0.3
          0.3 0.3 0.3 0.3 0.3 0.3 0.3 0.3 0.3 0.3 0.3 0.3
          0.3 0.3 0.3 0.3 0.3 0.3 0.3 0.3 0.3 0.3 0.3 0.3
          0.3 0.3 0.3 0.3 0.3 0.3 0.3 0.3 0.3 0.3 0.3 0.3
          0.3 0.3 0.3 0.3 0.3 0.3 0.3 0.3 0.3 0.3 0.3 0.3
          0.3 0.3 0.3 0.3 0.3 0.3 0.3 0.3 0.3 0.3 0.3 0.3
          0.3 0.3 0.3 0.3 0.3 0.3 0.3 0.3 0.3 0.3 0.3 0.3
          0.3 0.3 0.3 0.3 0.3 0.3 0.3 0.3 0.3 0.3 0.3 0.3
          0.3 0.3 0.3 0.3 0.3 0.3 0.3 0.3 0.3 0.3 0.3 0.3
          0.3 0.3 0.3 0.3 0.3 0.3 0.3 0.3 0.3 0.3 0.3 0.3
          0.3 0.3 0.3 0.3 0.3 0.3 0.3 0.3 0.3 0.3 0.3 0.3
          0.3 0.3 0.3 0.3 0.3 0.3 0.3 0.3 0.3 0.3 0.3 0.3
          0.3 0.3 0.3 0.3 0.3 0.3 0.3 0.3 0.3 0.3 0.3 0.3
          0.3 0.3 0.3 0.3 0.3 0.3 0.3 0.3 0.3 0.3 0.3 0.3
          0.3 0.3 0.3 0.3 0.3 0.3 0.3 0.3 0.3 0.3 0.3 0.3
          0.3 0.3 0.3 0.3 0.3 0.3 0.3 0.3 0.3 0.3 0.3 0.3
          0.3 0.3 0.3 0.3 0.3 0.3 0.3 0.3 0.3 0.3 0.3 0.3
          0.3 0.3 0.3 0.3 0.3 0.3 0.3 0.3 0.3 0.3 0.3 0.3
          0.3 0.3 0.3 0.3 0.3 0.3 0.3 0.3 0.3 0.3 0.3 0.3
          0.3 0.3 0.3 0.3 0.3 0.3 0.3 0.3 0.3 0.3 0.3 0.3
          0.3 0.3 0.3 0.3 0.3 0.3 0.3 0.3 0.3 0.3 0.3 0.3
          0.3 0.3 0.3 0.3 0.3 0.3 0.3 0.3 0.3 0.3 0.3 0.3
          0.3 0.3 0.3 0.3 0.3 0.3 0.3 0.3 0.3 0.3 0.3 0.3
          0.3 0.3 0.3 0.3 0.3 0.3 0.3 0.3 0.3 0.3 0.3 0.3
          0.3 0.3 0.3 0.3 0.3
        </DataArray>
        <DataArray type="Float32" Name="temperature" NumberOfComponents="1" format="ascii">
          293.15 293.15 293.15 293.15 293.15 293.15 293.15 293.15 293.15 293.15 293.15 293.15
          293.15 293.15 293.15 293.15 293.15 293.15 293.15 293.15 293.15 293.15 293.15 293.15
          293.15 293.15 293.15 293.15 293.15 293.15 293.15 293.15 293.15 293.15 293.15 293.15
          293.15 293.15 293.15 293.15 293.15 293.15 293.15 293.15 293.15 293.15 293.15 293.15
          293.15 293.15 293.15 293.15 293.15 293.15 293.15 293.15 293.15 293.15 293.171 293.212
          293.233 293.212 293.171 293.15 293.15 293.15 293.15 293.15 293.15 293.15 293.15 293.15
          293.15 293.15 293.15 293.15 293.15 293.15 293.15 293.15 293.15 293.15 293.15 293.267
          392.906 392.919 392.403 293.212 293.15 293.15 293.15 293.15 293.15 293.15 293.15 293.15
          293.15 293.15 293.15 293.15 293.15 293.15 293.15 293.15 293.15 293.15 293.15 293.15
          293.381 393.065 393.149 392.756 293.233 293.15 293.15 293.15 293.15 293.15 293.15 293.15
          293.15 293.15 293.15 293.15 293.15 293.15 293.15 293.15 293.15 293.15 293.15 293.15
          293.151 293.434 393.066 393.15 392.819 293.233 293.15 293.15 293.15 293.15 293.15 293.15
          293.15 293.15 293.15 293.15 293.15 293.15 293.15 293.15 293.15 293.15 293.15 293.15
          293.15 293.151 293.473 393.066 393.15 392.867 293.233 293.15 293.15 293.15 293.15 293.15
          293.15 293.15 293.15 293.15 293.15 293.15 293.15 293.15 293.15 293.15 293.15 293.15
          293.15 293.15 293.151 293.537 393.066 393.15 392.929 293.233 293.15 293.15 293.15 293.15
          293.15 293.15 293.15 293.15 293.15 293.15 293.15 293.15 293.15 293.15 293.15 293.15
          293.15 293.15 293.15 293.151 293.677 393.066 393.15 393.021 293.236 293.15 293.15 293.15
          293.15 293.15 293.15 293.15 293.15 293.15 293.15 293.15 293.15 293.15 293.15 293.15
          293.15 293.15 293.15 293.15 293.15 293.278 393.065 393.15 393.062 293.234 293.15 293.15
          293.15 293.15 293.15 293.15 293.15 293.15 293.15 293.15 293.15 293.15 293.15 293.15
          293.15 293.15 293.15 293.15 293.15 293.15 293.266 393.065 393.15 393.057 293.233 293.15
          293.15 293.15 293.15 293.15 293.15 293.15 293.15 293.15 293.15 293.15 293.15 293.15
          293.15 293.15 293.15 293.15 293.15 293.15 293.15 293.263 393.065 393.15 393.056 293.233
          293.15 293.15 293.15 293.15 293.15 293.15 293.15 293.15 293.15 293.15 293.15 293.15
          293.15 293.15 293.15 293.15 293.15 293.15 293.15 293.15 293.266 393.065 393.15 393.058
          293.234 293.15 293.15 293.15 293.15 293.15 293.15 293.15 293.15 293.15 293.15 293.15
          293.15 293.15 293.15 293.15 293.15 293.15 293.15 293.15 293.15 293.261 393.002 393.065
          393 293.214 293.15 293.15 293.15 293.15 293.15 293.15 293.15 293.15 293.15 293.15
          293.15 293.15 293.15 293.15 293.15 293.15 293.15 293.15 293.15 293.15 293.171 293.237
          293.248 293.227 293.171 293.15 293.15 293.15 293.15 293.15 293.15 293.15 293.15 293.15
          293.15 293.15 293.15 293.15 293.15 293.15 293.15 293.15 293.15 293.15 293.15 293.15
          293.15 293.15 293.15 293.15 293.15 293.15 293.15 293.15 293.15 293.15 293.15 293.15