<?xml version="1.0"?>
<VTKFile type="UnstructuredGrid" version="0.1" byte_order="LittleEndian">
  <UnstructuredGrid>
    <Piece NumberOfCells="44" NumberOfPoints="60">
      <PointData Scalars="pressure_w">
        <DataArray type="Float32" Name="pressure_w" NumberOfComponents="1" format="ascii">
          265357 264859 265350 264856 264857 264851 264855 264849 264852 264847 264851 264845
          264849 264843 264847 264841 264847 264839 253279 264837 253275 264837 253274 264837
          265358 253285 253272 253266 253263 253260 253259 253259 253264 264832 264831 264831
          265354 253281 248400 248394 248390 248387 253255 253254 253259 264826 264825 264825
          265334 264846 264839 264836 264833 264831 264829 264826 264823 264819 264819 264819
        </DataArray>
        <DataArray type="Float32" Name="pressure_n" NumberOfComponents="1" format="ascii">
          265357 264859 265350 264856 264857 264851 264855 264849 264852 264847 264851 264845
          264849 264843 264847 264841 264847 264839 253279 264837 253275 264837 253274 264837
          265358 253285 253272 253266 253263 253260 253259 253259 253264 264832 264831 264831
          265354 253281 261489 261483 261479 261477 253255 253254 253259 264826 264825 264825
          265334 264846 264839 264836 264833 264831 264829 264826 264823 264819 264819 264819
        </DataArray>
        <DataArray type="Float32" Name="pressure_g" NumberOfComponents="1" format="ascii">
          266145 266143 266139 266137 266141 266136 266139 266133 266137 266131 266135 266129
          266133 266127 266131 266126 266131 266123 266121 266121 266116 266121 266116 266121
          266146 266126 266113 266108 266104 266102 266100 266101 266106 266116 266115 266115
          266141 266123 266111 266105 266101 266099 266096 266096 266100 266110 266109 266109
          266126 266125 266124 266121 266118 266115 266113 266111 266107 266103 266103 266103
        </DataArray>
        <DataArray type="Float32" Name="density_w" NumberOfComponents="1" format="ascii">
          995.18 998.352 995.18 998.336 998.354 998.354 998.354 998.354 998.354 998.354 998.354 998.354
          998.354 998.354 998.354 998.354 998.354 998.354 998.35 998.354 998.35 998.354 998.35 998.354
          995.18 998.361 998.351 998.352 998.351 998.351 998.35 998.35 998.35 998.354 998.354 998.354
          995.18 998.361 998.354 998.354 998.354 998.354 998.353 998.351 998.35 998.355 998.355 998.354
          995.18 998.33 998.354 998.354 998.354 998.354 998.355 998.355 998.356 998.356 998.354 998.354
        </DataArray>
        <DataArray type="Float32" Name="density_n" NumberOfComponents="1" format="ascii">
          860.643 870.622 860.643 870.562 870.631 870.631 870.631 870.631 870.631 870.631 870.631 870.631
          870.631 870.631 870.631 870.631 870.631 870.631 870.635 870.631 870.635 870.631 870.635 870.631
          860.642 870.677 870.635 870.635 870.635 870.635 870.635 870.635 870.635 870.631 870.631 870.631
          860.642 870.677 870.636 870.636 870.636 870.636 870.635 870.635 870.635 870.631 870.631 870.631
          860.643 870.537 870.631 870.631 870.631 870.631 870.631 870.631 870.631 870.631 870.631 870.631
        </DataArray>
        <DataArray type="Float32" Name="density_g" NumberOfComponents="1" format="ascii">
          3.0185 3.15272 3.01844 3.15182 3.15283 3.15276 3.1528 3.15274 3.15278 3.15271 3.15275 3.15269
          3.15273 3.15266 3.15271 3.15265 3.15271 3.15262 3.15263 3.15259 3.15258 3.15259 3.15257 3.15259
          3.01851 3.15329 3.15286 3.15282 3.15275 3.15267 3.15241 3.1524 3.15246 3.15253 3.15252 3.15252
          3.01845 3.15334 3.16109 3.16102 3.16097 3.16094 3.15299 3.1525 3.1525 3.15264 3.15251 3.15246
          3.01828 3.15134 3.15261 3.15259 3.15257 3.15257 3.15262 3.1527 3.15277 3.15264 3.1524 3.15238
        </DataArray>
        <DataArray type="Float32" Name="saturation_w" NumberOfComponents="1" format="ascii">
          0.136269 0.120082 0.136153 0.120178 0.120006 0.120007 0.120006 0.120006 0.120006 0.120006 0.120006 0.120006
          0.120006 0.120006 0.120006 0.120006 0.120006 0.120006 0.120005 0.120006 0.120005 0.120006 0.120005 0.120006
          0.136274 0.120014 0.120005 0.120005 0.120005 0.120005 0.120005 0.120005 0.120005 0.120006 0.120006 0.120006
          0.136272 0.120014 0.120006 0.120006 0.120006 0.120006 0.120005 0.120005 0.120005 0.120006 0.120006 0.120006
          0.13604 0.120232 0.120007 0.120006 0.120006 0.120006 0.120006 0.120006 0.120006 0.120006 0.120006 0.120006
        </DataArray>
        <DataArray type="Float32" Name="saturation_n" NumberOfComponents="1" format="ascii">
          0 0 0 0 0 0 0 0 0 0 0 0
          0 0 0 0 0 0 0 0 0 0 0 0
          0 0 0 0 0 0 0 0 0 0 0 0
          0 0 0.0700103 0.0700131 0.0700128 0.0700128 0 0 0 0 0 0
          0 0 0 0 0 0 0 0 0 0 0 0
        </DataArray>
        <DataArray type="Float32" Name="saturation_g" NumberOfComponents="1" format="ascii">
          0.863731 0.879918 0.863847 0.879822 0.879994 0.879993 0.879994 0.879994 0.879994 0.879994 0.879994 0.879994
          0.879994 0.879994 0.879994 0.879994 0.879994 0.879994 0.879995 0.879994 0.879995 0.879994 0.879995 0.879994
          0.863726 0.879986 0.879995 0.879995 0.879995 0.879995 0.879995 0.879995 0.879995 0.879994 0.879994 0.879994
          0.863728 0.879986 0.809984 0.809981 0.809981 0.809981 0.879995 0.879995 0.879995 0.879994 0.879994 0.879994
          0.86396 0.879768 0.879993 0.879994 0.879994 0.879994 0.879994 0.879994 0.879994 0.879994 0.879994 0.879994
        </DataArray>
        <DataArray type="Float32" Name="relativePerm_w" NumberOfComponents="1" format="ascii">
          1.79505e-06 0 1.75455e-06 8.27046e-14 0 0 0 0 0 0 0 0
          0 0 0 0 0 0 0 0 0 0 0 0
          1.79689e-06 0 0 0 0 0 0 0 0 0 0 0
          1.79634e-06 0 0 0 0 0 0 0 0 0 0 0
          1.71591e-06 4.37144e-13 0 0 0 0 0 0 0 0 0 0
        </DataArray>
        <DataArray type="Float32" Name="relativePerm_n" NumberOfComponents="1" format="ascii">
          0 0 0 0 0 0 0 0 0 0 0 0
          0 0 0 0 0 0 0 0 0 0 0 0
          0 0 0 0 0 0 0 0 0 0 0 0
          0 0 0 0 0 0 0 0 0 0 0 0
          0 0 0 0 0 0 0 0 0 0 0 0
        </DataArray>
        <DataArray type="Float32" Name="relativePerm_g" NumberOfComponents="1" format="ascii">
          0.865121 0.885507 0.865269 0.885387 0.885601 0.8856 0.885601 0.885601 0.885601 0.885601 0.885601 0.885601
          0.885601 0.885601 0.885601 0.885601 0.885601 0.885601 0.885602 0.885601 0.885602 0.885601 0.885602 0.885601
          0.865115 0.885591 0.885602 0.885602 0.885602 0.885602 0.885602 0.885602 0.885602 0.885601 0.885601 0.885601
          0.865117 0.885591 0.794666 0.794662 0.794663 0.794663 0.885602 0.885602 0.885602 0.885601 0.885601 0.885601
          0.865412 0.88532 0.8856 0.885601 0.885601 0.885601 0.885601 0.885601 0.885601 0.885601 0.885601 0.885601
        </DataArray>
        <DataArray type="Float32" Name="porosity" NumberOfComponents="1" format="ascii">
          0.42 0.42 0.42 0.42 0.42 0.42 0.42 0.42 0.42 0.42 0.42 0.42
          0.42 0.42 0.42 0.42 0.42 0.42 0.42 0.42 0.42 0.42 0.42 0.42
          0.42 0.42 0.42 0.42 0.42 0.42 0.42 0.42 0.42 0.42 0.42 0.42
          0.42 0.42 0.42 0.42 0.42 0.42 0.42 0.42 0.42 0.42 0.42 0.42
          0.42 0.42 0.42 0.42 0.42 0.42 0.42 0.42 0.42 0.42 0.42 0.42
        </DataArray>
        <DataArray type="Float32" Name="moleFrac_w^H2O" NumberOfComponents="1" format="ascii">
          1 1 1 1 1 1 1 1 1 1 1 1
          1 1 1 1 1 1 1 1 1 1 1 1
          1 1 1 1 1 1 1 1 1 1 1 1
          1 1 0.99996 0.99996 0.99996 0.99996 1 1 1 1 1 1
          1 1 1 1 1 1 1 1 1 1 1 1
        </DataArray>
        <DataArray type="Float32" Name="moleFrac_w^mesitylene" NumberOfComponents="1" format="ascii">
          8.32636e-14 4.25538e-12 2.19985e-12 7.03477e-12 1.565e-11 1.86605e-11 3.34314e-11 5.05352e-11 5.27841e-11 1.31745e-10 7.01335e-11 2.97439e-10
          8.11393e-11 5.47841e-10 8.24115e-11 7.13665e-10 8.42574e-11 6.39465e-10 1.16996e-10 6.49113e-10 9.90949e-11 4.30972e-10 3.81286e-11 1.86069e-10
          2.53287e-12 2.2177e-09 2.55384e-07 2.80341e-07 2.5342e-07 2.09694e-07 1.13742e-08 1.23141e-09 3.45767e-10 4.99982e-10 2.28186e-10 6.94415e-11
          4.40765e-12 7.38438e-08 6.9155e-06 6.91547e-06 6.91547e-06 6.91547e-06 5.22707e-07 1.34644e-07 8.91438e-08 1.47057e-07 4.8415e-08 7.34073e-09
          4.37597e-12 1.61644e-11 3.69064e-10 2.75767e-09 1.22792e-08 3.9873e-08 9.90433e-08 1.90097e-07 2.74465e-07 2.14008e-07 1.80269e-08 1.44332e-09
        </DataArray>
        <DataArray type="Float32" Name="moleFrac_w^Air" NumberOfComponents="1" format="ascii">
          2.77196e-05 3.30588e-05 2.7719e-05 3.30168e-05 3.30648e-05 3.30638e-05 3.30645e-05 3.30637e-05 3.30642e-05 3.30635e-05 3.30639e-05 3.30632e-05
          3.30637e-05 3.3063e-05 3.30635e-05 3.30628e-05 3.30634e-05 3.30625e-05 3.30645e-05 3.30622e-05 3.30639e-05 3.30623e-05 3.30639e-05 3.30622e-05
          2.77195e-05 3.30942e-05 3.30624e-05 3.30617e-05 3.30614e-05 3.30612e-05 3.30619e-05 3.30619e-05 3.30626e-05 3.30616e-05 3.30615e-05 3.30615e-05
          2.7719e-05 3.30937e-05 3.30357e-05 3.3035e-05 3.30346e-05 3.30342e-05 3.30592e-05 3.30608e-05 3.30616e-05 3.30602e-05 3.30606e-05 3.30607e-05
          2.77175e-05 3.29982e-05 3.30621e-05 3.30622e-05 3.30617e-05 3.30613e-05 3.30608e-05 3.30601e-05 3.30594e-05 3.30591e-05 3.306e-05 3.306e-05
        </DataArray>
        <DataArray type="Float32" Name="moleFrac_n^H2O" NumberOfComponents="1" format="ascii">
          9.44842e-06 1.01487e-05 9.44842e-06 1.01448e-05 1.01492e-05 1.01492e-05 1.01492e-05 1.01492e-05 1.01492e-05 1.01492e-05 1.01492e-05 1.01492e-05
          1.01492e-05 1.01492e-05 1.01492e-05 1.01492e-05 1.01492e-05 1.01492e-05 1.01494e-05 1.01492e-05 1.01494e-05 1.01492e-05 1.01494e-05 1.01492e-05
          9.4484e-06 1.0152e-05 1.01494e-05 1.01494e-05 1.01494e-05 1.01494e-05 1.01494e-05 1.01494e-05 1.01494e-05 1.01492e-05 1.01492e-05 1.01492e-05
          9.4484e-06 1.0152e-05 1.01491e-05 1.01491e-05 1.01491e-05 1.01491e-05 1.01494e-05 1.01494e-05 1.01494e-05 1.01492e-05 1.01492e-05 1.01492e-05
          9.44841e-06 1.01431e-05 1.01492e-05 1.01492e-05 1.01492e-05 1.01492e-05 1.01492e-05 1.01492e-05 1.01492e-05 1.01492e-05 1.01492e-05 1.01492e-05
        </DataArray>
        <DataArray type="Float32" Name="moleFrac_n^mesitylene" NumberOfComponents="1" format="ascii">
          5.49759e-09 6.13909e-07 1.45247e-07 1.0098e-06 2.25948e-06 2.69402e-06 4.82666e-06 7.296e-06 7.6207e-06 1.90206e-05 1.01255e-05 4.29427e-05
          1.17145e-05 7.90944e-05 1.18982e-05 0.000103035 1.21646e-05 9.23226e-05 1.6896e-05 9.37156e-05 1.43108e-05 6.22214e-05 5.50634e-06 2.68636e-05
          1.6723e-07 0.000321398 0.0368809 0.0404853 0.0365976 0.0302829 0.00164261 0.000177834 4.99339e-05 7.21847e-05 3.29443e-05 1.00256e-05
          2.91011e-07 0.010702 0.998839 0.998839 0.998839 0.998839 0.0754866 0.0194445 0.0128737 0.0212312 0.00698991 0.00105982
          2.88926e-07 2.31549e-06 5.32804e-05 0.000398137 0.00177281 0.00575664 0.0142993 0.0274452 0.0396259 0.0308974 0.00260264 0.000208379
        </DataArray>
        <DataArray type="Float32" Name="moleFrac_n^Air" NumberOfComponents="1" format="ascii">
          0.00052183 0.00115068 0.000521816 0.00114484 0.00115155 0.00115148 0.00115153 0.00115151 0.00115152 0.0011515 0.00115151 0.00115149
          0.00115151 0.00115148 0.0011515 0.00115147 0.0011515 0.00115146 0.00115178 0.00115145 0.00115176 0.00115145 0.00115175 0.00115145
          0.000521813 0.00115589 0.0011517 0.00115167 0.00115166 0.00115166 0.00115168 0.00115169 0.00115171 0.00115143 0.00115143 0.00115143
          0.000521805 0.0011559 0.00115089 0.00115087 0.00115086 0.00115084 0.00115159 0.00115165 0.00115167 0.00115138 0.0011514 0.0011514
          0.000521787 0.0011424 0.0011514 0.00115145 0.00115143 0.00115142 0.0011514 0.00115138 0.00115135 0.00115134 0.00115138 0.00115138
        </DataArray>
        <DataArray type="Float32" Name="moleFrac_g^H2O" NumberOfComponents="1" format="ascii">
          0.0177843 0.00874262 0.0177848 0.00878343 0.00873654 0.00873703 0.00873667 0.00873686 0.00873674 0.00873694 0.00873681 0.008737
          0.00873686 0.00873706 0.00873691 0.00873711 0.00873695 0.0087372 0.00873501 0.00873726 0.00873517 0.00873725 0.00873519 0.00873726
          0.0177848 0.00870637 0.00873533 0.00873547 0.00873558 0.00873565 0.0087357 0.00873569 0.00873551 0.00873744 0.00873744 0.00873744
          0.0177851 0.00870626 0.00873388 0.00873404 0.00873416 0.00873425 0.00873584 0.00873585 0.00873569 0.00873763 0.00873763 0.00873764
          0.0177858 0.00880063 0.00873765 0.00873729 0.00873739 0.00873747 0.00873754 0.00873761 0.00873771 0.00873785 0.00873783 0.00873783
        </DataArray>
        <DataArray type="Float32" Name="moleFrac_g^mesitylene" NumberOfComponents="1" format="ascii">
          1.03479e-11 5.28855e-10 2.73399e-10 8.74293e-10 1.94498e-09 2.31917e-09 4.15489e-09 6.28069e-09 6.56011e-09 1.63739e-08 8.71639e-09 3.69674e-08
          1.00843e-08 6.80892e-08 1.02425e-08 8.86994e-08 1.04719e-08 7.94781e-08 1.45413e-08 8.06778e-08 1.23167e-08 5.35651e-08 4.73907e-09 2.31263e-08
          3.14779e-10 2.75631e-07 3.17424e-05 3.48451e-05 3.14994e-05 2.60646e-05 1.4138e-06 1.53063e-07 4.29776e-08 6.21436e-08 2.83616e-08 8.63102e-09
          5.47782e-10 9.17794e-06 0.000859555 0.000859571 0.000859583 0.000859591 6.4973e-05 1.67364e-05 1.10805e-05 1.82783e-05 6.01773e-06 9.12414e-07
          5.43877e-10 2.00903e-09 4.58703e-08 3.42749e-07 1.5262e-06 4.95589e-06 1.23104e-05 2.36279e-05 3.41149e-05 2.66007e-05 2.2407e-06 1.79401e-07
        </DataArray>
        <DataArray type="Float32" Name="moleFrac_g^Air" NumberOfComponents="1" format="ascii">
          0.982216 0.991257 0.982215 0.991217 0.991263 0.991263 0.991263 0.991263 0.991263 0.991263 0.991263 0.991263
          0.991263 0.991263 0.991263 0.991263 0.991263 0.991263 0.991265 0.991263 0.991265 0.991263 0.991265 0.991263
          0.982215 0.991293 0.991233 0.99123 0.991233 0.991238 0.991263 0.991264 0.991264 0.991262 0.991263 0.991263
          0.982215 0.991285 0.990407 0.990406 0.990406 0.990406 0.991199 0.991247 0.991253 0.991244 0.991256 0.991261
          0.982214 0.991199 0.991262 0.991262 0.991261 0.991258 0.99125 0.991239 0.991228 0.991236 0.99126 0.991262
        </DataArray>
        <DataArray type="Float32" Name="temperature" NumberOfComponents="1" format="ascii">
          305.05 293.061 305.05 293.134 293.05 293.051 293.05 293.05 293.05 293.05 293.05 293.05
          293.05 293.05 293.05 293.05 293.05 293.05 293.046 293.05 293.046 293.05 293.046 293.05
          305.051 292.995 293.046 293.046 293.046 293.046 293.046 293.046 293.046 293.05 293.05 293.05
          305.051 292.995 293.044 293.044 293.044 293.044 293.046 293.046 293.046 293.05 293.05 293.05
          305.051 293.165 293.051 293.05 293.05 293.05 293.05 293.05 293.05 293.05 293.05 293.05
        </DataArray>
      </PointData>
      <Points>
        <DataArray type="Float32" Name="Coordinates" NumberOfComponents="3" format="ascii">
          0 0 0 0.136364 0 0 0 0.185 0 0.136364 0.185 0
          0.272727 0 0 0.272727 0.185 0 0.409091 0 0 0.409091 0.185 0
          0.545455 0 0 0.545455 0.185 0 0.681818 0 0 0.681818 0.185 0
          0.818182 0 0 0.818182 0.185 0 0.954545 0 0 0.954545 0.185 0
          1.09091 0 0 1.09091 0.185 0 1.22727 0 0 1.22727 0.185 0
          1.36364 0 0 1.36364 0.185 0 1.5 0 0 1.5 0.185 0
          0 0.37 0 0.136364 0.37 0 0.272727 0.37 0 0.409091 0.37 0
          0.545455 0.37 0 0.681818 0.37 0 0.818182 0.37 0 0.954545 0.37 0
          1.09091 0.37 0 1.22727 0.37 0 1.36364 0.37 0 1.5 0.37 0
          0 0.555 0 0.136364 0.555 0 0.272727 0.555 0 0.409091 0.555 0
          0.545455 0.555 0 0.681818 0.555 0 0.818182 0.555 0 0.954545 0.555 0
          1.09091 0.555 0 1.22727 0.555 0 1.36364 0.555 0 1.5 0.555 0
          0 0.74 0 0.136364 0.74 0 0.272727 0.74 0 0.409091 0.74 0
          0.545455 0.74 0 0.681818 0.74 0 0.818182 0.74 0 0.954545 0.74 0
          1.09091 0.74 0 1.22727 0.74 0 1.36364 0.74 0 1.5 0.74 0
        </DataArray>
      </Points>
      <Cells>
        <DataArray type="Int32" Name="connectivity" NumberOfComponents="1" format="ascii">
          0 1 3 2 1 4 5 3 4 6 7 5
          6 8 9 7 8 10 11 9 10 12 13 11
          12 14 15 13 14 16 17 15 16 18 19 17
          18 20 21 19 20 22 23 21 2 3 25 24
          3 5 26 25 5 7 27 26 7 9 28 27
          9 11 29 28 11 13 30 29 13 15 31 30
          15 17 32 31 17 19 33 32 19 21 34 33
          21 23 35 34 24 25 37 36 25 26 38 37
          26 27 39 38 27 28 40 39 28 29 41 40
          29 30 42 41 30 31 43 42 31 32 44 43
          32 33 45 44 33 34 46 45 34 35 47 46
          36 37 49 48 37 38 50 49 38 39 51 50
          39 40 52 51 40 41 53 52 41 42 54 53
          42 43 55 54 43 44 56 55 44 45 57 56
          45 46 58 57 46 47 59 58
        </DataArray>
        <DataArray type="Int32" Name="offsets" NumberOfComponents="1" format="ascii">
          4 8 12 16 20 24 28 32 36 40 44 48
          52 56 60 64 68 72 76 80 84 88 92 96
          100 104 108 112 116 120 124 128 132 136 140 144
          148 152 156 160 164 168 172 176
        </DataArray>
        <DataArray type="UInt8" Name="types" NumberOfComponents="1" format="ascii">
          9 9 9 9 9 9 9 9 9 9 9 9
          9 9 9 9 9 9 9 9 9 9 9 9
          9 9 9 9 9 9 9 9 9 9 9 9
          9 9 9 9 9 9 9 9
        </DataArray>
      </Cells>
    </Piece>
  </UnstructuredGrid>
</VTKFile>
