<?xml version="1.0"?>
<VTKFile type="UnstructuredGrid" version="0.1" byte_order="LittleEndian">
  <UnstructuredGrid>
    <Piece NumberOfCells="44" NumberOfPoints="60">
      <PointData Scalars="pressure_w">
        <DataArray type="Float32" Name="pressure_w" NumberOfComponents="1" format="ascii">
          264803 264309 264796 264304 264308 264302 264305 264300 264303 264298 264301 264296
          264300 264294 264298 264292 264297 264290 252730 264288 252726 264288 252725 264288
          264803 252736 252722 252717 252714 252711 252710 252710 252715 264282 264282 264282
          264798 252732 247850 247844 247841 247838 252705 252705 252710 264276 264276 264276
          264781 264291 264290 264287 264284 264281 264279 264277 264274 264270 264270 264270
        </DataArray>
        <DataArray type="Float32" Name="pressure_n" NumberOfComponents="1" format="ascii">
          264803 264309 264796 264304 264308 264302 264305 264300 264303 264298 264301 264296
          264300 264294 264298 264292 264297 264290 252730 264288 252726 264288 252725 264288
          264803 252736 252722 252717 252714 252711 252710 252710 252715 264282 264282 264282
          264798 252732 260939 260933 260930 260927 252705 252705 252710 264276 264276 264276
          264781 264291 264290 264287 264284 264281 264279 264277 264274 264270 264270 264270
        </DataArray>
        <DataArray type="Float32" Name="pressure_g" NumberOfComponents="1" format="ascii">
          265596 265594 265590 265588 265592 265586 265590 265584 265587 265582 265585 265580
          265584 265578 265582 265576 265582 265574 265572 265572 265567 265572 265566 265572
          265595 265577 265564 265558 265555 265553 265551 265551 265556 265566 265566 265566
          265590 265573 265562 265556 265552 265549 265547 265547 265551 265560 265560 265560
          265576 265575 265574 265571 265568 265565 265563 265561 265558 265554 265554 265554
        </DataArray>
        <DataArray type="Float32" Name="density_w" NumberOfComponents="1" format="ascii">
          998.3 998.3 998.3 998.3 998.3 998.3 998.3 998.3 998.3 998.3 998.3 998.3
          998.3 998.3 998.3 998.3 998.3 998.3 998.295 998.3 998.295 998.3 998.295 998.3
          998.3 998.295 998.296 998.296 998.296 998.296 998.295 998.295 998.295 998.3 998.3 998.3
          998.3 998.295 998.332 998.332 998.332 998.332 998.298 998.295 998.295 998.301 998.3 998.3
          998.3 998.3 998.3 998.3 998.3 998.3 998.301 998.301 998.302 998.301 998.3 998.3
        </DataArray>
        <DataArray type="Float32" Name="density_n" NumberOfComponents="1" format="ascii">
          870.549 870.549 870.549 870.549 870.549 870.549 870.549 870.549 870.549 870.549 870.549 870.549
          870.549 870.549 870.549 870.549 870.549 870.549 870.549 870.549 870.549 870.549 870.549 870.549
          870.549 870.549 870.549 870.549 870.549 870.549 870.549 870.549 870.549 870.549 870.549 870.549
          870.549 870.549 870.549 870.549 870.549 870.549 870.549 870.549 870.549 870.549 870.549 870.549
          870.549 870.549 870.549 870.549 870.549 870.549 870.549 870.549 870.549 870.549 870.549 870.549
        </DataArray>
        <DataArray type="Float32" Name="density_g" NumberOfComponents="1" format="ascii">
          3.14521 3.14519 3.14514 3.14512 3.14516 3.1451 3.14514 3.14507 3.14511 3.14505 3.14509 3.14502
          3.14507 3.145 3.14505 3.14498 3.14504 3.14495 3.14492 3.14493 3.14487 3.14493 3.14486 3.14493
          3.14521 3.145 3.14514 3.14511 3.14503 3.14495 3.1447 3.14469 3.14475 3.14486 3.14486 3.14486
          3.14515 3.14504 3.15341 3.15334 3.1533 3.15327 3.14528 3.1448 3.14479 3.14497 3.14485 3.1448
          3.14497 3.14497 3.14495 3.14492 3.1449 3.1449 3.14496 3.14505 3.14511 3.14498 3.14474 3.14472
        </DataArray>
        <DataArray type="Float32" Name="saturation_w" NumberOfComponents="1" format="ascii">
          0.13598 0.120013 0.135897 0.120032 0.120007 0.120007 0.120007 0.120007 0.120007 0.120007 0.120007 0.120007
          0.120007 0.120007 0.120007 0.120007 0.120007 0.120007 0.120006 0.120007 0.120006 0.120007 0.120006 0.120007
          0.135984 0.120008 0.120006 0.120006 0.120006 0.120006 0.120006 0.120006 0.120006 0.120007 0.120007 0.120007
          0.135983 0.120008 0.120005 0.120005 0.120005 0.120005 0.120006 0.120006 0.120006 0.120007 0.120007 0.120007
          0.135815 0.12005 0.120007 0.120007 0.120007 0.120007 0.120007 0.120007 0.120007 0.120007 0.120007 0.120007
        </DataArray>
        <DataArray type="Float32" Name="saturation_n" NumberOfComponents="1" format="ascii">
          0 0 0 0 0 0 0 0 0 0 0 0
          0 0 0 0 0 0 0 0 0 0 0 0
          0 0 0 0 0 0 0 0 0 0 0 0
          0 0 0.0700074 0.0700101 0.0700098 0.0700098 0 0 0 0 0 0
          0 0 0 0 0 0 0 0 0 0 0 0
        </DataArray>
        <DataArray type="Float32" Name="saturation_g" NumberOfComponents="1" format="ascii">
          0.86402 0.879987 0.864103 0.879968 0.879993 0.879993 0.879993 0.879993 0.879993 0.879993 0.879993 0.879993
          0.879993 0.879993 0.879993 0.879993 0.879993 0.879993 0.879994 0.879993 0.879994 0.879993 0.879994 0.879993
          0.864016 0.879992 0.879994 0.879994 0.879994 0.879994 0.879994 0.879994 0.879994 0.879993 0.879993 0.879993
          0.864017 0.879992 0.809988 0.809985 0.809985 0.809985 0.879994 0.879994 0.879994 0.879993 0.879993 0.879993
          0.864185 0.87995 0.879993 0.879993 0.879993 0.879993 0.879993 0.879993 0.879993 0.879993 0.879993 0.879993
        </DataArray>
        <DataArray type="Float32" Name="relativePerm_w" NumberOfComponents="1" format="ascii">
          1.69561e-06 0 1.66754e-06 0 0 0 0 0 0 0 0 0
          0 0 0 0 0 0 0 0 0 0 0 0
          1.6967e-06 0 0 0 0 0 0 0 0 0 0 0
          1.69644e-06 0 0 0 0 0 0 0 0 0 0 0
          1.64039e-06 0 0 0 0 0 0 0 0 0 0 0
        </DataArray>
        <DataArray type="Float32" Name="relativePerm_n" NumberOfComponents="1" format="ascii">
          0 0 0 0 0 0 0 0 0 0 0 0
          0 0 0 0 0 0 0 0 0 0 0 0
          0 0 0 0 0 0 0 0 0 0 0 0
          0 0 0 0 0 0 0 0 0 0 0 0
          0 0 0 0 0 0 0 0 0 0 0 0
        </DataArray>
        <DataArray type="Float32" Name="relativePerm_g" NumberOfComponents="1" format="ascii">
          0.865488 0.885592 0.865595 0.885568 0.885599 0.885599 0.885599 0.885599 0.885599 0.885599 0.885599 0.885599
          0.885599 0.885599 0.885599 0.885599 0.885599 0.885599 0.885601 0.885599 0.885601 0.885599 0.885601 0.885599
          0.865484 0.885598 0.885601 0.885601 0.885601 0.885601 0.885601 0.885601 0.885601 0.885599 0.885599 0.885599
          0.865485 0.885598 0.794671 0.794668 0.794668 0.794668 0.885601 0.885601 0.885601 0.885599 0.885599 0.885599
          0.865698 0.885546 0.885599 0.885599 0.885599 0.885599 0.885599 0.885599 0.885599 0.885599 0.885599 0.885599
        </DataArray>
        <DataArray type="Float32" Name="porosity" NumberOfComponents="1" format="ascii">
          0.42 0.42 0.42 0.42 0.42 0.42 0.42 0.42 0.42 0.42 0.42 0.42
          0.42 0.42 0.42 0.42 0.42 0.42 0.42 0.42 0.42 0.42 0.42 0.42
          0.42 0.42 0.42 0.42 0.42 0.42 0.42 0.42 0.42 0.42 0.42 0.42
          0.42 0.42 0.42 0.42 0.42 0.42 0.42 0.42 0.42 0.42 0.42 0.42
          0.42 0.42 0.42 0.42 0.42 0.42 0.42 0.42 0.42 0.42 0.42 0.42
        </DataArray>
        <DataArray type="Float32" Name="moleFrac_w^H2O" NumberOfComponents="1" format="ascii">
          0.999967 0.999967 0.999967 0.999967 0.999967 0.999967 0.999967 0.999967 0.999967 0.999967 0.999967 0.999967
          0.999967 0.999967 0.999967 0.999967 0.999967 0.999967 0.999967 0.999967 0.999967 0.999967 0.999967 0.999967
          0.999967 0.999967 0.999967 0.999967 0.999967 0.999967 0.999967 0.999967 0.999967 0.999967 0.999967 0.999967
          0.999967 0.999967 0.99996 0.99996 0.99996 0.99996 0.999967 0.999967 0.999967 0.999967 0.999967 0.999967
          0.999967 0.999967 0.999967 0.999967 0.999967 0.999967 0.999967 0.999967 0.999967 0.999967 0.999967 0.999967
        </DataArray>
        <DataArray type="Float32" Name="moleFrac_w^mesitylene" NumberOfComponents="1" format="ascii">
          1.56658e-13 4.26673e-12 2.42232e-12 7.4323e-12 1.59427e-11 1.93473e-11 3.40804e-11 5.18549e-11 5.36898e-11 1.34461e-10 7.11168e-11 3.02428e-10
          8.2056e-11 5.54948e-10 8.31796e-11 7.20658e-10 8.24447e-11 6.44744e-10 1.17178e-10 6.54214e-10 1.00024e-10 4.35453e-10 3.88227e-11 1.89087e-10
          2.7941e-12 2.11806e-09 2.47622e-07 2.73744e-07 2.48081e-07 2.05352e-07 1.1042e-08 1.18108e-09 3.2859e-10 5.03631e-10 2.31362e-10 7.12963e-11
          4.80537e-12 7.47214e-08 6.96593e-06 6.96593e-06 6.96593e-06 6.96593e-06 5.25455e-07 1.36157e-07 8.93991e-08 1.44343e-07 4.70296e-08 7.02593e-09
          4.7688e-12 1.72493e-11 3.93521e-10 2.92881e-09 1.29878e-08 4.19897e-08 1.03743e-07 1.97689e-07 2.82439e-07 2.12869e-07 1.78763e-08 1.43878e-09
        </DataArray>
        <DataArray type="Float32" Name="moleFrac_w^Air" NumberOfComponents="1" format="ascii">
          3.29402e-05 3.294e-05 3.29395e-05 3.29393e-05 3.29397e-05 3.29391e-05 3.29395e-05 3.29388e-05 3.29392e-05 3.29385e-05 3.2939e-05 3.29382e-05
          3.29387e-05 3.2938e-05 3.29385e-05 3.29378e-05 3.29385e-05 3.29375e-05 3.29372e-05 3.29373e-05 3.29367e-05 3.29373e-05 3.29366e-05 3.29373e-05
          3.29402e-05 3.29379e-05 3.29353e-05 3.29344e-05 3.29341e-05 3.2934e-05 3.29346e-05 3.29347e-05 3.29353e-05 3.29366e-05 3.29365e-05 3.29365e-05
          3.29396e-05 3.29371e-05 3.29071e-05 3.29064e-05 3.29059e-05 3.29056e-05 3.29319e-05 3.29335e-05 3.29343e-05 3.29352e-05 3.29356e-05 3.29357e-05
          3.29377e-05 3.29377e-05 3.29375e-05 3.29371e-05 3.29367e-05 3.29363e-05 3.29358e-05 3.29351e-05 3.29344e-05 3.29341e-05 3.2935e-05 3.2935e-05
        </DataArray>
        <DataArray type="Float32" Name="moleFrac_n^H2O" NumberOfComponents="1" format="ascii">
          1.01436e-05 1.01436e-05 1.01436e-05 1.01436e-05 1.01436e-05 1.01436e-05 1.01436e-05 1.01436e-05 1.01436e-05 1.01436e-05 1.01436e-05 1.01436e-05
          1.01436e-05 1.01436e-05 1.01436e-05 1.01436e-05 1.01436e-05 1.01436e-05 1.01436e-05 1.01436e-05 1.01436e-05 1.01436e-05 1.01436e-05 1.01436e-05
          1.01436e-05 1.01436e-05 1.01436e-05 1.01436e-05 1.01436e-05 1.01436e-05 1.01436e-05 1.01436e-05 1.01436e-05 1.01436e-05 1.01436e-05 1.01436e-05
          1.01436e-05 1.01436e-05 1.01435e-05 1.01435e-05 1.01435e-05 1.01435e-05 1.01436e-05 1.01436e-05 1.01436e-05 1.01436e-05 1.01436e-05 1.01436e-05
          1.01436e-05 1.01436e-05 1.01436e-05 1.01436e-05 1.01436e-05 1.01436e-05 1.01436e-05 1.01436e-05 1.01436e-05 1.01436e-05 1.01436e-05 1.01436e-05
        </DataArray>
        <DataArray type="Float32" Name="moleFrac_n^mesitylene" NumberOfComponents="1" format="ascii">
          2.24633e-08 6.11809e-07 3.47339e-07 1.06572e-06 2.28604e-06 2.77422e-06 4.88681e-06 7.4355e-06 7.69862e-06 1.92804e-05 1.01975e-05 4.33654e-05
          1.17661e-05 7.95744e-05 1.19272e-05 0.000103336 1.18218e-05 9.24503e-05 1.68022e-05 9.38081e-05 1.43424e-05 6.24399e-05 5.56682e-06 2.71133e-05
          4.00647e-07 0.00030371 0.0355067 0.0392524 0.0355725 0.0294455 0.00158332 0.000169356 4.71168e-05 7.2216e-05 3.31752e-05 1.02232e-05
          6.89045e-07 0.0107143 0.99885 0.99885 0.99885 0.99885 0.0753453 0.0195237 0.012819 0.0206974 0.00674361 0.00100745
          6.83801e-07 2.47339e-06 5.64273e-05 0.000419965 0.00186233 0.00602093 0.0148758 0.0283468 0.0404992 0.0305234 0.00256329 0.000206307
        </DataArray>
        <DataArray type="Float32" Name="moleFrac_n^Air" NumberOfComponents="1" format="ascii">
          0.00114126 0.00114126 0.00114124 0.00114123 0.00114125 0.00114122 0.00114124 0.00114121 0.00114123 0.0011412 0.00114122 0.00114119
          0.00114121 0.00114119 0.00114121 0.00114118 0.0011412 0.00114117 0.00114116 0.00114116 0.00114114 0.00114116 0.00114114 0.00114116
          0.00114126 0.00114118 0.00114109 0.00114106 0.00114105 0.00114105 0.00114107 0.00114107 0.00114109 0.00114114 0.00114114 0.00114114
          0.00114124 0.00114116 0.00114012 0.00114009 0.00114008 0.00114006 0.00114098 0.00114103 0.00114106 0.00114109 0.0011411 0.00114111
          0.00114118 0.00114118 0.00114117 0.00114116 0.00114114 0.00114113 0.00114111 0.00114109 0.00114106 0.00114105 0.00114108 0.00114108
        </DataArray>
        <DataArray type="Float32" Name="moleFrac_g^H2O" NumberOfComponents="1" format="ascii">
          0.00880973 0.00880979 0.00880992 0.00880997 0.00880985 0.00881003 0.00880992 0.00881011 0.00880999 0.00881018 0.00881006 0.00881025
          0.00881012 0.00881031 0.00881017 0.00881036 0.00881019 0.00881045 0.00881052 0.00881051 0.00881067 0.00881051 0.00881069 0.00881051
          0.00880974 0.00881033 0.00881077 0.00881096 0.00881107 0.00881115 0.0088112 0.00881119 0.00881102 0.00881069 0.0088107 0.00881071
          0.0088099 0.00881046 0.00881079 0.00881099 0.00881111 0.0088112 0.00881134 0.00881135 0.0088112 0.00881089 0.0088109 0.0088109
          0.00881039 0.0088104 0.00881044 0.00881054 0.00881064 0.00881073 0.00881079 0.00881086 0.00881097 0.00881111 0.0088111 0.0088111
        </DataArray>
        <DataArray type="Float32" Name="moleFrac_g^mesitylene" NumberOfComponents="1" format="ascii">
          1.95094e-11 5.31362e-10 3.01671e-10 9.25609e-10 1.98546e-09 2.40951e-09 4.24431e-09 6.45804e-09 6.68647e-09 1.67459e-08 8.85688e-09 3.76652e-08
          1.02193e-08 6.91152e-08 1.03593e-08 8.97538e-08 1.02678e-08 8.02999e-08 1.45941e-08 8.14799e-08 1.24578e-08 5.4234e-08 4.83533e-09 2.35501e-08
          3.47964e-10 2.63791e-07 3.08413e-05 3.40956e-05 3.08995e-05 2.55776e-05 1.37535e-06 1.47111e-07 4.09271e-08 6.27266e-08 2.88159e-08 8.87988e-09
          5.98449e-10 9.30622e-06 0.000867615 0.000867634 0.000867646 0.000867655 6.54497e-05 1.69595e-05 1.11352e-05 1.79781e-05 5.85763e-06 8.75092e-07
          5.93928e-10 2.14831e-09 4.90112e-08 3.64774e-07 1.6176e-06 5.22979e-06 1.29212e-05 2.46225e-05 3.51786e-05 2.65138e-05 2.22657e-06 1.79206e-07
        </DataArray>
        <DataArray type="Float32" Name="moleFrac_g^Air" NumberOfComponents="1" format="ascii">
          0.99119 0.99119 0.99119 0.99119 0.99119 0.99119 0.99119 0.99119 0.99119 0.99119 0.99119 0.99119
          0.99119 0.99119 0.99119 0.99119 0.99119 0.991189 0.991189 0.991189 0.991189 0.991189 0.991189 0.991189
          0.99119 0.991189 0.991158 0.991155 0.991158 0.991163 0.991187 0.991189 0.991189 0.991189 0.991189 0.991189
          0.99119 0.99118 0.990322 0.990321 0.990321 0.990321 0.991123 0.991172 0.991178 0.991171 0.991183 0.991188
          0.99119 0.99119 0.991189 0.991189 0.991188 0.991184 0.991176 0.991165 0.991154 0.991162 0.991187 0.991189
        </DataArray>
        <DataArray type="Float32" Name="temperature" NumberOfComponents="1" format="ascii">
          293.15 293.15 293.15 293.15 293.15 293.15 293.15 293.15 293.15 293.15 293.15 293.15
          293.15 293.15 293.15 293.15 293.15 293.15 293.15 293.15 293.15 293.15 293.15 293.15
          293.15 293.15 293.15 293.15 293.15 293.15 293.15 293.15 293.15 293.15 293.15 293.15
          293.15 293.15 293.15 293.15 293.15 293.15 293.15 293.15 293.15 293.15 293.15 293.15
          293.15 293.15 293.15 293.15 293.15 293.15 293.15 293.15 293.15 293.15 293.15 293.15
        </DataArray>
      </PointData>
      <Points>
        <DataArray type="Float32" Name="Coordinates" NumberOfComponents="3" format="ascii">
          0 0 0 0.136364 0 0 0 0.185 0 0.136364 0.185 0
          0.272727 0 0 0.272727 0.185 0 0.409091 0 0 0.409091 0.185 0
          0.545455 0 0 0.545455 0.185 0 0.681818 0 0 0.681818 0.185 0
          0.818182 0 0 0.818182 0.185 0 0.954545 0 0 0.954545 0.185 0
          1.09091 0 0 1.09091 0.185 0 1.22727 0 0 1.22727 0.185 0
          1.36364 0 0 1.36364 0.185 0 1.5 0 0 1.5 0.185 0
          0 0.37 0 0.136364 0.37 0 0.272727 0.37 0 0.409091 0.37 0
          0.545455 0.37 0 0.681818 0.37 0 0.818182 0.37 0 0.954545 0.37 0
          1.09091 0.37 0 1.22727 0.37 0 1.36364 0.37 0 1.5 0.37 0
          0 0.555 0 0.136364 0.555 0 0.272727 0.555 0 0.409091 0.555 0
          0.545455 0.555 0 0.681818 0.555 0 0.818182 0.555 0 0.954545 0.555 0
          1.09091 0.555 0 1.22727 0.555 0 1.36364 0.555 0 1.5 0.555 0
          0 0.74 0 0.136364 0.74 0 0.272727 0.74 0 0.409091 0.74 0
          0.545455 0.74 0 0.681818 0.74 0 0.818182 0.74 0 0.954545 0.74 0
          1.09091 0.74 0 1.22727 0.74 0 1.36364 0.74 0 1.5 0.74 0
        </DataArray>
      </Points>
      <Cells>
        <DataArray type="Int32" Name="connectivity" NumberOfComponents="1" format="ascii">
          0 1 3 2 1 4 5 3 4 6 7 5
          6 8 9 7 8 10 11 9 10 12 13 11
          12 14 15 13 14 16 17 15 16 18 19 17
          18 20 21 19 20 22 23 21 2 3 25 24
          3 5 26 25 5 7 27 26 7 9 28 27
          9 11 29 28 11 13 30 29 13 15 31 30
          15 17 32 31 17 19 33 32 19 21 34 33
          21 23 35 34 24 25 37 36 25 26 38 37
          26 27 39 38 27 28 40 39 28 29 41 40
          29 30 42 41 30 31 43 42 31 32 44 43
          32 33 45 44 33 34 46 45 34 35 47 46
          36 37 49 48 37 38 50 49 38 39 51 50
          39 40 52 51 40 41 53 52 41 42 54 53
          42 43 55 54 43 44 56 55 44 45 57 56
          45 46 58 57 46 47 59 58
        </DataArray>
        <DataArray type="Int32" Name="offsets" NumberOfComponents="1" format="ascii">
          4 8 12 16 20 24 28 32 36 40 44 48
          52 56 60 64 68 72 76 80 84 88 92 96
          100 104 108 112 116 120 124 128 132 136 140 144
          148 152 156 160 164 168 172 176
        </DataArray>
        <DataArray type="UInt8" Name="types" NumberOfComponents="1" format="ascii">
          9 9 9 9 9 9 9 9 9 9 9 9
          9 9 9 9 9 9 9 9 9 9 9 9
          9 9 9 9 9 9 9 9 9 9 9 9
          9 9 9 9 9 9 9 9
        </DataArray>
      </Cells>
    </Piece>
  </UnstructuredGrid>
</VTKFile>
