<?xml version="1.0"?>
<VTKFile type="UnstructuredGrid" version="0.1" byte_order="LittleEndian">
  <UnstructuredGrid>
    <Piece NumberOfCells="44" NumberOfPoints="60">
      <PointData Scalars="pressure_w">
        <DataArray type="Float32" Name="pressure_w" NumberOfComponents="1" format="ascii">
          265358 264859 265351 264857 264857 264852 264855 264850 264853 264847 264851 264845
          264849 264844 264848 264842 264847 264840 253280 264838 253275 264838 253275 264838
          265359 253285 253272 253267 253263 253261 253260 253260 253265 264832 264832 264832
          265354 253282 248401 248394 248391 248388 253255 253255 253259 264826 264826 264826
          265335 264846 264840 264837 264834 264831 264829 264827 264824 264820 264820 264820
        </DataArray>
        <DataArray type="Float32" Name="pressure_n" NumberOfComponents="1" format="ascii">
          265358 264859 265351 264857 264857 264852 264855 264850 264853 264847 264851 264845
          264849 264844 264848 264842 264847 264840 253280 264838 253275 264838 253275 264838
          265359 253285 253272 253267 253263 253261 253260 253260 253265 264832 264832 264832
          265354 253282 261489 261484 261480 261477 253255 253255 253259 264826 264826 264826
          265335 264846 264840 264837 264834 264831 264829 264827 264824 264820 264820 264820
        </DataArray>
        <DataArray type="Float32" Name="pressure_g" NumberOfComponents="1" format="ascii">
          266146 266143 266140 266138 266142 266136 266139 266134 266137 266132 266135 266130
          266134 266128 266132 266126 266131 266124 266121 266122 266117 266122 266116 266122
          266146 266127 266114 266108 266105 266103 266101 266101 266106 266116 266116 266116
          266142 266123 266112 266106 266102 266099 266097 266097 266101 266110 266110 266110
          266126 266126 266124 266121 266118 266116 266114 266111 266108 266104 266104 266104
        </DataArray>
        <DataArray type="Float32" Name="density_w" NumberOfComponents="1" format="ascii">
          995.245 998.288 995.245 998.273 998.321 998.321 998.321 998.321 998.321 998.321 998.321 998.321
          998.321 998.321 998.321 998.321 998.321 998.321 998.317 998.321 998.317 998.321 998.317 998.321
          995.245 998.296 998.318 998.318 998.318 998.318 998.317 998.317 998.317 998.321 998.321 998.321
          995.245 998.296 998.354 998.354 998.354 998.354 998.32 998.318 998.317 998.322 998.321 998.321
          995.245 998.268 998.32 998.321 998.321 998.321 998.322 998.322 998.323 998.322 998.321 998.321
        </DataArray>
        <DataArray type="Float32" Name="density_n" NumberOfComponents="1" format="ascii">
          860.888 870.5 860.888 870.444 870.63 870.629 870.631 870.631 870.631 870.631 870.631 870.631
          870.631 870.631 870.631 870.631 870.631 870.631 870.635 870.631 870.635 870.631 870.635 870.631
          860.889 870.552 870.634 870.635 870.635 870.635 870.635 870.635 870.635 870.631 870.631 870.631
          860.889 870.552 870.636 870.636 870.636 870.636 870.635 870.635 870.635 870.631 870.631 870.631
          860.888 870.42 870.629 870.631 870.631 870.631 870.631 870.631 870.631 870.631 870.631 870.631
        </DataArray>
        <DataArray type="Float32" Name="density_g" NumberOfComponents="1" format="ascii">
          3.02174 3.15105 3.02168 3.15021 3.15281 3.15274 3.15281 3.15274 3.15279 3.15272 3.15276 3.15269
          3.15274 3.15267 3.15272 3.15265 3.15272 3.15262 3.15264 3.1526 3.15259 3.1526 3.15258 3.1526
          3.02176 3.15157 3.15286 3.15283 3.15276 3.15268 3.15241 3.1524 3.15246 3.15254 3.15253 3.15253
          3.02171 3.15162 3.16109 3.16102 3.16098 3.16095 3.153 3.15251 3.15251 3.15265 3.15252 3.15247
          3.02152 3.14974 3.15259 3.1526 3.15257 3.15257 3.15262 3.15271 3.15278 3.15265 3.15241 3.15239
        </DataArray>
        <DataArray type="Float32" Name="saturation_w" NumberOfComponents="1" format="ascii">
          0.136261 0.120085 0.136152 0.120176 0.120009 0.12001 0.120009 0.120009 0.120009 0.120009 0.120009 0.120009
          0.120009 0.120009 0.120009 0.120009 0.120009 0.120009 0.120007 0.120009 0.120007 0.120009 0.120007 0.120009
          0.136265 0.12002 0.120007 0.120007 0.120007 0.120007 0.120007 0.120007 0.120007 0.120009 0.120009 0.120009
          0.136264 0.120019 0.120006 0.120006 0.120006 0.120006 0.120007 0.120007 0.120007 0.120009 0.120009 0.120009
          0.136047 0.120228 0.120011 0.120009 0.120009 0.120009 0.120009 0.120009 0.120009 0.120009 0.120009 0.120009
        </DataArray>
        <DataArray type="Float32" Name="saturation_n" NumberOfComponents="1" format="ascii">
          0 0 0 0 0 0 0 0 0 0 0 0
          0 0 0 0 0 0 0 0 0 0 0 0
          0 0 0 0 0 0 0 0 0 0 0 0
          0 0 0.0700104 0.0700131 0.0700128 0.0700128 0 0 0 0 0 0
          0 0 0 0 0 0 0 0 0 0 0 0
        </DataArray>
        <DataArray type="Float32" Name="saturation_g" NumberOfComponents="1" format="ascii">
          0.863739 0.879915 0.863848 0.879824 0.879991 0.87999 0.879991 0.879991 0.879991 0.879991 0.879991 0.879991
          0.879991 0.879991 0.879991 0.879991 0.879991 0.879991 0.879993 0.879991 0.879993 0.879991 0.879993 0.879991
          0.863734 0.87998 0.879993 0.879993 0.879993 0.879993 0.879993 0.879993 0.879993 0.879991 0.879991 0.879991
          0.863736 0.879981 0.809984 0.809981 0.809981 0.809981 0.879993 0.879993 0.879993 0.879991 0.879991 0.879991
          0.863953 0.879772 0.879989 0.879991 0.879991 0.879991 0.879991 0.879991 0.879991 0.879991 0.879991 0.879991
        </DataArray>
        <DataArray type="Float32" Name="relativePerm_w" NumberOfComponents="1" format="ascii">
          1.79236e-06 0 1.75448e-06 7.77547e-14 0 0 0 0 0 0 0 0
          0 0 0 0 0 0 0 0 0 0 0 0
          1.79395e-06 0 0 0 0 0 0 0 0 0 0 0
          1.7935e-06 0 0 0 0 0 0 0 0 0 0 0
          1.71819e-06 3.94666e-13 0 0 0 0 0 0 0 0 0 0
        </DataArray>
        <DataArray type="Float32" Name="relativePerm_n" NumberOfComponents="1" format="ascii">
          0 0 0 0 0 0 0 0 0 0 0 0
          0 0 0 0 0 0 0 0 0 0 0 0
          0 0 0 0 0 0 0 0 0 0 0 0
          0 0 0 0 0 0 0 0 0 0 0 0
          0 0 0 0 0 0 0 0 0 0 0 0
        </DataArray>
        <DataArray type="Float32" Name="relativePerm_g" NumberOfComponents="1" format="ascii">
          0.865131 0.885503 0.865269 0.885389 0.885597 0.885596 0.885598 0.885598 0.885598 0.885598 0.885598 0.885598
          0.885598 0.885598 0.885598 0.885598 0.885598 0.885598 0.885599 0.885598 0.885599 0.885598 0.885599 0.885598
          0.865125 0.885584 0.885599 0.885599 0.885599 0.885599 0.885599 0.885599 0.885599 0.885598 0.885598 0.885598
          0.865127 0.885584 0.794666 0.794662 0.794662 0.794662 0.885599 0.885599 0.885599 0.885598 0.885598 0.885598
          0.865404 0.885325 0.885595 0.885598 0.885598 0.885598 0.885598 0.885598 0.885598 0.885598 0.885598 0.885598
        </DataArray>
        <DataArray type="Float32" Name="porosity" NumberOfComponents="1" format="ascii">
          0.42 0.42 0.42 0.42 0.42 0.42 0.42 0.42 0.42 0.42 0.42 0.42
          0.42 0.42 0.42 0.42 0.42 0.42 0.42 0.42 0.42 0.42 0.42 0.42
          0.42 0.42 0.42 0.42 0.42 0.42 0.42 0.42 0.42 0.42 0.42 0.42
          0.42 0.42 0.42 0.42 0.42 0.42 0.42 0.42 0.42 0.42 0.42 0.42
          0.42 0.42 0.42 0.42 0.42 0.42 0.42 0.42 0.42 0.42 0.42 0.42
        </DataArray>
        <DataArray type="Float32" Name="moleFrac_w^H2O" NumberOfComponents="1" format="ascii">
          0.999972 0.999967 0.999972 0.999967 0.999967 0.999967 0.999967 0.999967 0.999967 0.999967 0.999967 0.999967
          0.999967 0.999967 0.999967 0.999967 0.999967 0.999967 0.999967 0.999967 0.999967 0.999967 0.999967 0.999967
          0.999972 0.999967 0.999967 0.999967 0.999967 0.999967 0.999967 0.999967 0.999967 0.999967 0.999967 0.999967
          0.999972 0.999967 0.99996 0.99996 0.99996 0.99996 0.999966 0.999967 0.999967 0.999967 0.999967 0.999967
          0.999972 0.999967 0.999967 0.999967 0.999967 0.999967 0.999967 0.999967 0.999967 0.999967 0.999967 0.999967
        </DataArray>
        <DataArray type="Float32" Name="moleFrac_w^mesitylene" NumberOfComponents="1" format="ascii">
          6.97305e-14 3.97805e-12 1.81684e-12 6.12655e-12 1.48766e-11 1.68377e-11 3.23345e-11 4.66016e-11 5.20278e-11 1.23946e-10 7.01895e-11 2.85883e-10
          8.2043e-11 5.38188e-10 8.37567e-11 7.13052e-10 8.54699e-11 6.45459e-10 1.17719e-10 6.57978e-10 9.88156e-11 4.35838e-10 3.7532e-11 1.86191e-10
          2.07004e-12 2.22047e-09 2.5594e-07 2.80933e-07 2.5396e-07 2.10145e-07 1.13763e-08 1.23405e-09 3.4548e-10 5.06394e-10 2.28794e-10 6.86285e-11
          3.49365e-12 7.3769e-08 6.91592e-06 6.91554e-06 6.91553e-06 6.91554e-06 5.24672e-07 1.35716e-07 8.97845e-08 1.48787e-07 4.85176e-08 7.24511e-09
          3.47567e-12 1.33139e-11 2.88115e-10 2.27504e-09 1.07024e-08 3.64347e-08 9.42789e-08 1.86992e-07 2.75922e-07 2.16619e-07 1.7848e-08 1.40577e-09
        </DataArray>
        <DataArray type="Float32" Name="moleFrac_w^Air" NumberOfComponents="1" format="ascii">
          2.7822e-05 3.29757e-05 2.78214e-05 3.29368e-05 3.30638e-05 3.30626e-05 3.30645e-05 3.30638e-05 3.30643e-05 3.30636e-05 3.3064e-05 3.30633e-05
          3.30638e-05 3.30631e-05 3.30636e-05 3.30629e-05 3.30635e-05 3.30626e-05 3.30645e-05 3.30623e-05 3.3064e-05 3.30624e-05 3.30639e-05 3.30623e-05
          2.78224e-05 3.30088e-05 3.30621e-05 3.30617e-05 3.30614e-05 3.30613e-05 3.30619e-05 3.3062e-05 3.30626e-05 3.30617e-05 3.30616e-05 3.30616e-05
          2.78219e-05 3.30083e-05 3.30353e-05 3.3035e-05 3.30346e-05 3.30342e-05 3.30593e-05 3.30608e-05 3.30616e-05 3.30603e-05 3.30607e-05 3.30608e-05
          2.78199e-05 3.29195e-05 3.30608e-05 3.30623e-05 3.30619e-05 3.30614e-05 3.30609e-05 3.30603e-05 3.30595e-05 3.30592e-05 3.306e-05 3.30601e-05
        </DataArray>
        <DataArray type="Float32" Name="moleFrac_n^H2O" NumberOfComponents="1" format="ascii">
          9.46384e-06 1.01403e-05 9.46383e-06 1.01363e-05 1.01488e-05 1.01487e-05 1.01489e-05 1.01489e-05 1.01489e-05 1.01489e-05 1.01489e-05 1.01489e-05
          1.01489e-05 1.01489e-05 1.01489e-05 1.01489e-05 1.01489e-05 1.01489e-05 1.01491e-05 1.01489e-05 1.01491e-05 1.01489e-05 1.01491e-05 1.01489e-05
          9.46389e-06 1.01438e-05 1.01491e-05 1.01491e-05 1.01491e-05 1.01491e-05 1.01491e-05 1.01491e-05 1.01491e-05 1.01489e-05 1.01489e-05 1.01489e-05
          9.46389e-06 1.01438e-05 1.01491e-05 1.01491e-05 1.01491e-05 1.01491e-05 1.01491e-05 1.01491e-05 1.01491e-05 1.01489e-05 1.01489e-05 1.01489e-05
          9.46382e-06 1.01346e-05 1.01487e-05 1.01489e-05 1.01489e-05 1.01489e-05 1.01489e-05 1.01489e-05 1.01489e-05 1.01489e-05 1.01489e-05 1.01489e-05
        </DataArray>
        <DataArray type="Float32" Name="moleFrac_n^mesitylene" NumberOfComponents="1" format="ascii">
          4.68835e-09 5.68119e-07 1.22154e-07 8.70874e-07 2.14754e-06 2.43048e-06 4.66827e-06 6.72809e-06 7.51149e-06 1.78946e-05 1.01336e-05 4.12744e-05
          1.18449e-05 7.77008e-05 1.20923e-05 0.000102947 1.23397e-05 9.3188e-05 1.70001e-05 9.49955e-05 1.42703e-05 6.2924e-05 5.42013e-06 2.68813e-05
          1.39187e-07 0.000318478 0.0369594 0.0405706 0.0366754 0.0303479 0.00164289 0.000178213 4.98919e-05 7.31107e-05 3.3032e-05 9.90821e-06
          2.34907e-07 0.0105808 0.998839 0.998839 0.998839 0.998839 0.07577 0.0195993 0.0129661 0.0214812 0.00700471 0.00104601
          2.33683e-07 1.88888e-06 4.1587e-05 0.000328459 0.00154516 0.00526028 0.0136115 0.026997 0.0398362 0.0312743 0.0025768 0.000202957
        </DataArray>
        <DataArray type="Float32" Name="moleFrac_n^Air" NumberOfComponents="1" format="ascii">
          0.000531544 0.001139 0.000531528 0.00113362 0.0011514 0.0011513 0.00115153 0.00115151 0.00115152 0.0011515 0.00115151 0.00115149
          0.00115151 0.00115148 0.0011515 0.00115148 0.0011515 0.00115147 0.00115176 0.00115146 0.00115175 0.00115146 0.00115175 0.00115146
          0.000531573 0.00114387 0.00115164 0.00115167 0.00115166 0.00115166 0.00115168 0.00115168 0.0011517 0.00115144 0.00115143 0.00115143
          0.000531562 0.00114387 0.00115083 0.00115086 0.00115085 0.00115084 0.00115159 0.00115164 0.00115166 0.00115139 0.0011514 0.0011514
          0.000531494 0.00113136 0.0011512 0.00115146 0.00115145 0.00115143 0.00115141 0.00115139 0.00115136 0.00115135 0.00115138 0.00115138
        </DataArray>
        <DataArray type="Float32" Name="moleFrac_g^H2O" NumberOfComponents="1" format="ascii">
          0.017493 0.00882426 0.0174935 0.00886232 0.0087373 0.00873798 0.00873639 0.00873656 0.00873645 0.00873662 0.00873651 0.00873668
          0.00873657 0.00873674 0.00873662 0.0087368 0.00873662 0.00873688 0.0087348 0.00873694 0.00873493 0.00873694 0.00873495 0.00873694
          0.0174921 0.00879004 0.00873544 0.00873519 0.0087353 0.00873538 0.00873543 0.00873543 0.00873528 0.00873711 0.00873715 0.00873715
          0.0174925 0.00878996 0.00873435 0.00873409 0.00873421 0.00873431 0.00873556 0.00873558 0.00873546 0.0087373 0.00873734 0.00873734
          0.0174946 0.00887836 0.00873872 0.00873694 0.00873702 0.00873711 0.00873719 0.00873726 0.00873738 0.00873753 0.00873754 0.00873754
        </DataArray>
        <DataArray type="Float32" Name="moleFrac_g^mesitylene" NumberOfComponents="1" format="ascii">
          8.66596e-12 4.94387e-10 2.25797e-10 7.61416e-10 1.84886e-09 2.09262e-09 4.01855e-09 5.7918e-09 6.46611e-09 1.54045e-08 8.72334e-09 3.55311e-08
          1.01966e-08 6.68893e-08 1.04096e-08 8.8623e-08 1.06226e-08 8.02228e-08 1.46312e-08 8.17793e-08 1.22819e-08 5.41698e-08 4.66491e-09 2.31414e-08
          2.57259e-10 2.75975e-07 3.18115e-05 3.49186e-05 3.15664e-05 2.61206e-05 1.41406e-06 1.5339e-07 4.29418e-08 6.29405e-08 2.84372e-08 8.52995e-09
          4.34189e-10 9.16862e-06 0.000859605 0.000859577 0.000859588 0.000859598 6.5217e-05 1.68696e-05 1.11601e-05 1.84934e-05 6.03047e-06 9.00527e-07
          4.3198e-10 1.65474e-09 3.58092e-08 2.82763e-07 1.33021e-06 4.52854e-06 1.17182e-05 2.32419e-05 3.42958e-05 2.69251e-05 2.21846e-06 1.74733e-07
        </DataArray>
        <DataArray type="Float32" Name="moleFrac_g^Air" NumberOfComponents="1" format="ascii">
          0.982507 0.991176 0.982507 0.991138 0.991263 0.991262 0.991264 0.991263 0.991264 0.991263 0.991263 0.991263
          0.991263 0.991263 0.991263 0.991263 0.991263 0.991263 0.991265 0.991263 0.991265 0.991263 0.991265 0.991263
          0.982508 0.99121 0.991233 0.99123 0.991233 0.991238 0.991263 0.991264 0.991265 0.991263 0.991263 0.991263
          0.982508 0.991201 0.990406 0.990406 0.990406 0.990406 0.991199 0.991248 0.991253 0.991244 0.991257 0.991262
          0.982505 0.991122 0.991261 0.991263 0.991262 0.991258 0.991251 0.991239 0.991228 0.991236 0.99126 0.991262
        </DataArray>
        <DataArray type="Float32" Name="temperature" NumberOfComponents="1" format="ascii">
          304.758 293.209 304.758 293.277 293.052 293.053 293.05 293.05 293.05 293.05 293.05 293.05
          293.05 293.05 293.05 293.05 293.05 293.05 293.046 293.05 293.046 293.05 293.046 293.05
          304.757 293.146 293.047 293.046 293.046 293.046 293.046 293.046 293.046 293.05 293.05 293.05
          304.757 293.146 293.045 293.044 293.044 293.044 293.046 293.046 293.046 293.05 293.05 293.05
          304.758 293.305 293.054 293.05 293.05 293.05 293.05 293.05 293.05 293.05 293.05 293.05
        </DataArray>
      </PointData>
      <Points>
        <DataArray type="Float32" Name="Coordinates" NumberOfComponents="3" format="ascii">
          0 0 0 0.136364 0 0 0 0.185 0 0.136364 0.185 0
          0.272727 0 0 0.272727 0.185 0 0.409091 0 0 0.409091 0.185 0
          0.545455 0 0 0.545455 0.185 0 0.681818 0 0 0.681818 0.185 0
          0.818182 0 0 0.818182 0.185 0 0.954545 0 0 0.954545 0.185 0
          1.09091 0 0 1.09091 0.185 0 1.22727 0 0 1.22727 0.185 0
          1.36364 0 0 1.36364 0.185 0 1.5 0 0 1.5 0.185 0
          0 0.37 0 0.136364 0.37 0 0.272727 0.37 0 0.409091 0.37 0
          0.545455 0.37 0 0.681818 0.37 0 0.818182 0.37 0 0.954545 0.37 0
          1.09091 0.37 0 1.22727 0.37 0 1.36364 0.37 0 1.5 0.37 0
          0 0.555 0 0.136364 0.555 0 0.272727 0.555 0 0.409091 0.555 0
          0.545455 0.555 0 0.681818 0.555 0 0.818182 0.555 0 0.954545 0.555 0
          1.09091 0.555 0 1.22727 0.555 0 1.36364 0.555 0 1.5 0.555 0
          0 0.74 0 0.136364 0.74 0 0.272727 0.74 0 0.409091 0.74 0
          0.545455 0.74 0 0.681818 0.74 0 0.818182 0.74 0 0.954545 0.74 0
          1.09091 0.74 0 1.22727 0.74 0 1.36364 0.74 0 1.5 0.74 0
        </DataArray>
      </Points>
      <Cells>
        <DataArray type="Int32" Name="connectivity" NumberOfComponents="1" format="ascii">
          0 1 3 2 1 4 5 3 4 6 7 5
          6 8 9 7 8 10 11 9 10 12 13 11
          12 14 15 13 14 16 17 15 16 18 19 17
          18 20 21 19 20 22 23 21 2 3 25 24
          3 5 26 25 5 7 27 26 7 9 28 27
          9 11 29 28 11 13 30 29 13 15 31 30
          15 17 32 31 17 19 33 32 19 21 34 33
          21 23 35 34 24 25 37 36 25 26 38 37
          26 27 39 38 27 28 40 39 28 29 41 40
          29 30 42 41 30 31 43 42 31 32 44 43
          32 33 45 44 33 34 46 45 34 35 47 46
          36 37 49 48 37 38 50 49 38 39 51 50
          39 40 52 51 40 41 53 52 41 42 54 53
          42 43 55 54 43 44 56 55 44 45 57 56
          45 46 58 57 46 47 59 58
        </DataArray>
        <DataArray type="Int32" Name="offsets" NumberOfComponents="1" format="ascii">
          4 8 12 16 20 24 28 32 36 40 44 48
          52 56 60 64 68 72 76 80 84 88 92 96
          100 104 108 112 116 120 124 128 132 136 140 144
          148 152 156 160 164 168 172 176
        </DataArray>
        <DataArray type="UInt8" Name="types" NumberOfComponents="1" format="ascii">
          9 9 9 9 9 9 9 9 9 9 9 9
          9 9 9 9 9 9 9 9 9 9 9 9
          9 9 9 9 9 9 9 9 9 9 9 9
          9 9 9 9 9 9 9 9
        </DataArray>
      </Cells>
    </Piece>
  </UnstructuredGrid>
</VTKFile>
