<?xml version="1.0"?>
<VTKFile type="UnstructuredGrid" version="0.1" byte_order="LittleEndian">
  <UnstructuredGrid>
    <Piece NumberOfCells="1400" NumberOfPoints="1491">
      <PointData Scalars="pressure_w">
        <DataArray type="Float32" Name="pressure_w" NumberOfComponents="1" format="ascii">
          100000 100000 99999.9 100000 100000 100000 100000 100000 100000 100000 100000 100000
          100000 100000 100000 100000 100000 100000 100000 100000 100000 100000 100000 100000
          100000 100000 100000 100000 100000 100000 100000 100000 100000 100000 100000 100000
          100000 100000 100000 100000 100000 100000 99999.9 99999.9 99999.9 99999.9 99999.9 99999.9
          99999.9 99999.9 99999.9 99999.9 99999.9 99999.9 99999.9 99999.9 99999.9 99999.9 99999.9 99999.9
          99999.9 99999.9 99999.9 99999.9 99999.9 99999.9 99999.9 99999.9 99999.9 99999.9 99999.9 99999.9
          99999.9 99999.9 99999.9 99999.9 99999.9 99999.9 99999.9 99999.9 99999.9 99999.9 99999.9 99999.9
          99999.9 99999.9 99999.9 99999.9 99999.9 99999.9 99999.9 99999.9 99999.9 99999.9 99999.9 99999.9
          99999.9 99999.9 99999.9 99999.9 99999.9 99999.9 99999.9 99999.9 99999.9 99999.8 99999.8 99999.8
          99999.8 99999.8 99999.8 99999.8 99999.8 99999.8 99999.8 99999.8 99999.8 99999.8 99999.8 99999.8
          99999.8 99999.8 99999.8 99999.8 99999.8 99999.8 99999.8 99999.8 99999.8 99999.8 99999.8 99999.8
          99999.8 99999.8 99999.8 99999.8 99999.8 99999.8 99999.8 99999.8 99999.8 99999.8 99999.8 99999.8
          99999.8 99999.8 99999.8 99999.7 99999.7 99999.7 99999.7 99999.7 99999.7 99999.7 99999.7 99999.7
          99999.7 99999.7 99999.7 99999.7 99999.7 99999.7 99999.7 99999.7 99999.7 99999.7 99999.7 99999.7
          99999.7 99999.7 99999.7 99999.7 99999.7 99999.7 99999.7 99999.7 99999.7 99999.7 99999.7 99999.7
          99999.7 99999.7 99999.7 99999.7 99999.7 99999.7 99999.7 99999.7 99999.7 99999.7 99999.7 99999.7
          99999.7 99999.7 99999.7 99999.7 99999.7 99999.7 99999.7 99999.7 99999.7 99999.7 99999.7 99999.7
          99999.7 99999.7 99999.7 99999.7 99999.7 99999.7 99999.6 99999.6 99999.6 99999.6 99999.6 99999.6
          99999.6 99999.6 99999.6 99999.6 99999.6 99999.6 99999.6 99999.6 99999.6 99999.6 99999.6 99999.6
          99999.6 99999.6 99999.6 99999.6 99999.6 99999.6 99999.6 99999.6 99999.6 99999.6 99999.6 99999.6
          99999.6 99999.6 99999.6 99999.6 99999.6 99999.6 99999.6 99999.6 99999.6 99999.6 99999.6 99999.6
          99999.5 99999.5 99999.5 99999.5 99999.5 99999.5 99999.5 99999.5 99999.5 99999.5 99999.5 99999.5
          99999.5 99999.5 99999.5 99999.5 99999.5 99999.5 99999.5 99999.5 99999.5 99999.5 99999.5 99999.5
          99999.5 99999.5 99999.5 99999.5 99999.5 99999.5 99999.5 99999.5 99999.5 99999.5 99999.5 99999.5
          99999.5 99999.5 99999.5 99999.5 99999.5 99999.5 99999.5 99999.5 99999.5 99999.5 99999.5 99999.5
          99999.5 99999.5 99999.5 99999.5 99999.5 99999.5 99999.5 99999.5 99999.5 99999.5 99999.5 99999.5
          99999.5 99999.5 99999.5 99999.4 99999.4 99999.4 99999.4 99999.4 99999.4 99999.4 99999.4 99999.4
          99999.4 99999.4 99999.4 99999.4 99999.4 99999.4 99999.4 99999.4 99999.4 99999.4 99999.4 99999.4
          99999.4 99999.4 99999.4 99999.4 99999.4 99999.4 99999.4 99999.4 99999.4 99999.4 99999.4 99999.4
          99999.4 99999.4 99999.4 99999.4 99999.4 99999.4 99999.4 99999.4 99999.4 99999.4 99999.4 99999.4
          99999.4 99999.4 99999.4 99999.4 99999.4 99999.4 99999.4 99999.4 99999.4 99999.4 99999.4 99999.4
          99999.4 99999.4 99999.4 99999.4 99999.4 99999.4 99999.3 99999.3 99999.3 99999.3 99999.3 99999.3
          99999.3 99999.3 99999.3 99999.3 99999.3 99999.3 99999.3 99999.3 99999.3 99999.3 99999.3 99999.3
          99999.3 99999.3 99999.3 99999.3 99999.3 99999.3 99999.3 99999.3 99999.3 99999.3 99999.3 99999.3
          99999.3 99999.3 99999.3 99999.3 99999.3 99999.3 99999.3 99999.3 99999.3 99999.3 99999.3 99999.3
          99999.2 99999.2 99999.2 99999.2 99999.2 99999.2 99999.2 99999.2 99999.2 99999.2 99999.2 99999.2
          99999.2 99999.2 99999.2 99999.2 99999.2 99999.2 99999.2 99999.2 99999.2 99999.2 99999.2 99999.2
          99999.2 99999.2 99999.2 99999.2 99999.2 99999.2 99999.2 99999.2 99999.2 99999.2 99999.2 99999.2
          99999.2 99999.2 99999.2 99999.2 99999.2 99999.2 99999.2 99999.2 99999.2 99999.2 99999.2 99999.2
          99999.2 99999.2 99999.2 99999.2 99999.2 99999.2 99999.2 99999.2 99999.2 99999.2 99999.2 99999.2
          99999.2 99999.2 99999.2 99999.1 99999.1 99999.1 99999.1 99999.1 99999.1 99999.1 99999.1 99999.1
          99999.1 99999.1 99999.1 99999.1 99999.1 99999.1 99999.1 99999.1 99999.1 99999.1 99999.1 99999.1
          99999.1 99999.1 99999.1 99999.1 99999.1 99999.1 99999.1 99999.1 99999.1 99999.1 99999.1 99999.1
          99999.1 99999.1 99999.1 99999.1 99999.1 99999.1 99999.1 99999.1 99999.1 99999.1 99999.1 99999.1
          99999.1 99999.1 99999.1 99999.1 99999.1 99999.1 99999.1 99999.1 99999.1 99999.1 99999.1 99999.1
          99999.1 99999.1 99999.1 99999.1 99999.1 99999.1 99999 99999 99999 99999 99999 99999
          99999 99999 99999 99999 99999 99999 99999 99999 99999 99999 99999 99999
          99999 99999 99999 99999 99999 99999 99999 99999 99999 99999 99999 99999
          99999 99999 99999 99999 99999 99999 99999 99999 99999 99999 99999 99999
          99998.9 99998.9 99998.9 99998.9 99998.9 99998.9 99998.9 99998.9 99998.9 99998.9 99998.9 99998.9
          99998.9 99998.9 99998.9 99998.9 99998.9 99998.9 99998.9 99998.9 99998.9 99998.9 99998.9 99998.9
          99998.9 99998.9 99998.9 99998.9 99998.9 99998.9 99998.9 99998.9 99998.9 99998.9 99998.9 99998.9
          99998.9 99998.9 99998.9 99998.9 99998.9 99998.9 99998.9 99998.9 99998.9 99998.9 99998.9 99998.9
          99998.9 99998.9 99998.9 99998.9 99998.9 99998.9 99998.9 99998.9 99998.9 99998.9 99998.9 99998.9
          99998.9 99998.9 99998.9 99998.8 99998.8 99998.8 99998.8 99998.8 99998.8 99998.8 99998.8 99998.8
          99998.8 99998.8 99998.8 99998.8 99998.8 99998.8 99998.8 99998.8 99998.8 99998.8 99998.8 99998.8
          99998.8 99998.8 99998.8 99998.8 99998.8 99998.8 99998.8 99998.8 99998.8 99998.8 99998.8 99998.8
          99998.8 99998.8 99998.8 99998.8 99998.8 99998.8 99998.8 99998.8 99998.8 99998.8 99998.8 99998.8
          99998.8 99998.8 99998.8 99998.8 99998.8 99998.8 99998.8 99998.8 99998.8 99998.8 99998.8 99998.8
          99998.8 99998.8 99998.8 99998.8 99998.8 99998.8 99998.7 99998.7 99998.7 99998.7 99998.7 99998.7
          99998.7 99998.7 99998.7 99998.7 99998.7 99998.7 99998.7 99998.7 99998.7 99998.7 99998.7 99998.7
          99998.7 99998.7 99998.7 99998.7 99998.7 99998.7 99998.7 99998.7 99998.7 99998.7 99998.7 99998.7
          99998.7 99998.7 99998.7 99998.7 99998.7 99998.7 99998.7 99998.7 99998.7 99998.7 99998.7 99998.7
          99998.6 99998.6 99998.6 99998.6 99998.6 99998.6 99998.6 99998.6 99998.6 99998.6 99998.6 99998.6
          99998.6 99998.6 99998.6 99998.6 99998.6 99998.6 99998.6 99998.6 99998.6 99998.6 99998.6 99998.6
          99998.6 99998.6 99998.6 99998.6 99998.6 99998.6 99998.6 99998.6 99998.6 99998.6 99998.6 99998.6
          99998.6 99998.6 99998.6 99998.6 99998.6 99998.6 99998.6 99998.6 99998.6 99998.6 99998.6 99998.6
          99998.6 99998.6 99998.6 99998.6 99998.6 99998.6 99998.6 99998.6 99998.6 99998.6 99998.6 99998.6
          99998.6 99998.6 99998.6 99998.5 99998.5 99998.5 99998.5 99998.5 99998.5 99998.5 99998.5 99998.5
          99998.5 99998.5 99998.5 99998.5 99998.5 99998.5 99998.5 99998.5 99998.5 99998.5 99998.5 99998.5
          99998.5 99998.5 99998.5 99998.5 99998.5 99998.5 99998.5 99998.5 99998.5 99998.5 99998.5 99998.5
          99998.5 99998.5 99998.5 99998.5 99998.5 99998.5 99998.5 99998.5 99998.5 99998.5 99998.5 99998.5
          99998.5 99998.5 99998.5 99998.5 99998.5 99998.5 99998.5 99998.5 99998.4 99998.4 99998.4 99998.4
          99998.4 99998.4 99998.4 99998.4 99998.4 99998.4 99998.4 99998.4 99998.4 99998.4 99998.4 99998.4
          99998.4 99998.4 99998.4 99998.4 99998.4 99998.4 99998.4 99998.4 99998.4 99998.4 99998.4 99998.4
          99998.4 99998.4 99998.4 99998.4 99998.4 99998.4 99998.4 99998.4 99998.4 99998.4 99998.4 99998.4
          99998.4 99998.4 99998.4 99998.4 99998.4 99998.4 99998.4 99998.4 99998.4 99998.4 99998.4 99998.4
          99998.3 99998.3 99998.3 99998.3 99998.3 99998.3 99998.3 99998.3 99998.3 99998.3 99998.3 99998.3
          99998.3 99998.3 99998.3 99998.3 99998.3 99998.3 99998.3 99998.3 99998.3 99998.3 99998.3 99998.3
          99998.3 99998.3 99998.3 99998.3 99998.3 99998.3 99998.3 99998.3 99998.3 99998.3 99998.3 99998.3
          99998.3 99998.3 99998.3 99998.3 99998.3 99998.3 99998.3 99998.3 99998.3 99998.3 99998.3 99998.3
          99998.3 99998.3 99998.3 99998.3 99998.3 99998.3 99998.3 99998.3 99998.2 99998.2 99998.2 99998.2
          99998.2 99998.2 99998.2 99998.2 99998.2 99998.2 99998.2 99998.2 99998.2 99998.2 99998.2 99998.2
          99998.2 99998.2 99998.2 99998.2 99998.2 99998.2 99998.2 99998.2 99998.2 99998.2 99998.2 99998.2
          99998.2 99998.2 99998.2 99998.2 99998.2 99998.2 99998.2 99998.2 99998.2 99998.2 99998.2 99998.2
          99998.2 99998.2 99998.2 99998.2 99998.2 99998.2 99998.2 99998.2 99998.2 99998.2 99998.2 99998.2
          99998.2 99998.2 99998.2 99998.2 99998.2 99998.2 99998.1 99998.1 99998.1 99998.1 99998.1 99998.1
          99998.1 99998.1 99998.1 99998.1 99998.1 99998.1 99998.1 99998.1 99998.1 99998.1 99998.1 99998.1
          99998.1 99998.1 99998.1 99998.1 99998.1 99998.1 99998.1 99998.1 99998.1 99998.1 99998.1 99998.1
          99998.1 99998.1 99998.1 99998.1 99998.1 99998.1 99998.1 99998.1 99998.1 99998.1 99998.1 99998.1
          99998.1 99998.1 99998.1 99998.1 99998.1 99998.1 99998.1 99998.1 99998 99998 99998 99998
          99998.1 99998.1 99998.1 99998.1 99998.1 99998.1 99998 99998 99998 99998 99998 99998
          99998 99998 99998 99998 99998 99998 99998 99998 99998 99998 99998 99998
          99998 99998 99998 99998 99998 99998 99998 99998 99998 99998 99998 99998
          99998 99998 99998 99998 99998 99998 99998 99998 99998 99998 99998 99998
          99998 99998 99998 99998 99998 99998 99997.9 99997.9 99997.9 99997.9 99997.9 99997.9
          99997.9 99997.9 99997.9 99998 99998 99998 99998 99998 99997.9 99997.9 99997.9 99997.9
          99997.9 99997.9 99997.9 99997.9 99997.9 99997.9 99997.9 99997.9 99997.9 99997.9 99997.9 99997.9
          99997.9 99997.9 99997.9 99997.9 99997.9 99997.9 99997.9 99997.9 99997.9 99997.9 99997.9 99997.9
          99997.9 99997.9 99997.9 99997.9 99997.9 99997.8 99997.8 99997.8 99997.8 99997.9 99997.9 99997.9
          99997.9 99997.9 99997.9 99997.9 99997.9 99997.9 99997.9 99997.9 99997.8 99997.8 99997.8 99997.8
          99997.8 99997.8 99997.8 99997.8 99997.8 99997.8 99997.9 99997.9 99997.9 99997.9 99997.9 99997.9
          99997.9 99997.9 99997.9 99997.8 99997.8 99997.8 99997.8 99997.8 99997.8 99997.8 99997.8 99997.8
          99997.8 99997.8 99997.8 99997.9 99997.9 99997.9 99997.9 99998 99998.1 99998.1 99998 99997.9
          99997.8 99997.8 99997.8 99997.8 99997.9 99997.9 99998 99998 99997.9 99997.8 99997.8 99997.7
          99997.9 99997.9 99998 99998.2 99998.5 99998.8 99998.8 99998.5 99998.1 99997.9 99997.8 99997.8
          99997.9 99998.1 99998.4 99998.7 99998.7 99998.4 99998 99997.8 99997.8 99997.9 99998 99998.3
          99999.1 100000 100002 100002 100000 99999 99998.3 99998 99997.9 99998.2 99999 100000
          100002 100002 100000 99998.9 99998.2 99998 99998.1 99998.4 99999.3 100002 100007 100012
          100011 100006 100002 99999.3 99998.3 99998.3 99999.3 100002 100006 100011 100011 100006
          100002 99999.3 99998.6 99998.5 99999.2 100002 100010 100024 100038 100038 100024 100010
          100002 99999.3 99999.3 100002 100010 100024 100038 100038 100024 100010 100002 100000
          99999.4 100001 100009 100028 100057 100082 100082 100057 100028 100009 100002 100002
          100009 100028 100057 100082 100082 100057 100028 100009 100004 100001 100005 100022
          100058 100102 100133 100133 100102 100058 100022 100006 100006 100022 100058 100102
          100133 100133 100102 100058 100023 100011 100003 100011 100042 100093 100145 100178
          100178 100145 100093 100042 100013 100013 100042 100093 100145 100178 100178 100145
          100094 100044 100021 100005 100018 100061 100123 100178 100215 100215 100178 100123
          100062 100020 100020 100062 100123 100178 100215 100215 100178 100124 100064 100033
          100006 100021 100071 100139 100201 100246 100246 100201 100139 100072 100023 100023
          100072 100139 100201 100246 100246 100201 100140 100074 100037 100003 100013 100054
          100122 100205 100274 100274 100205 100122 100054 100014 100014 100054 100122 100205
          100274 100274 100205 100122 100055 100024 100000 100000 100000 100000 100000 100321
          100321 100000 100000 100000 100000 100000 100000 100000 100000 100321 100321 100000
          100000 100000 100000
        </DataArray>
        <DataArray type="Float32" Name="pressure_n" NumberOfComponents="1" format="ascii">
          100963 100963 100963 100963 100963 100963 100963 100963 100963 100963 100963 100963
          100963 100963 100963 100963 100963 100963 100963 100963 100963 100963 100963 100963
          100963 100963 100963 100963 100963 100963 100963 100963 100963 100963 100963 100963
          100963 100963 100963 100963 100963 100963 100963 100963 100963 100963 100963 100963
          100963 100963 100963 100963 100963 100963 100963 100963 100963 100963 100963 100963
          100963 100963 100963 100963 100963 100963 100963 100963 100963 100963 100963 100963
          100963 100963 100963 100963 100963 100963 100963 100963 100963 100963 100963 100963
          100963 100963 100963 100963 100963 100963 100963 100963 100963 100963 100963 100963
          100963 100963 100963 100963 100963 100963 100963 100963 100963 100963 100963 100963
          100963 100963 100963 100963 100963 100963 100963 100963 100963 100963 100963 100963
          100963 100963 100963 100963 100963 100963 100963 100963 100963 100963 100963 100963
          100963 100963 100963 100963 100963 100963 100963 100963 100963 100963 100963 100963
          100963 100963 100963 100963 100963 100963 100963 100963 100963 100963 100963 100963
          100963 100963 100963 100963 100963 100963 100963 100963 100963 100963 100963 100963
          100963 100963 100963 100963 100963 100963 100963 100963 100963 100963 100963 100963
          100963 100963 100963 100963 100963 100963 100963 100963 100963 100963 100963 100963
          100963 100963 100963 100963 100963 100963 100963 100963 100963 100963 100963 100963
          100963 100963 100963 100963 100963 100963 100963 100963 100963 100963 100963 100963
          100963 100963 100963 100963 100963 100963 100963 100963 100963 100963 100963 100963
          100963 100963 100963 100963 100963 100963 100963 100963 100963 100963 100963 100963
          100963 100963 100963 100963 100963 100963 100963 100963 100963 100963 100963 100963
          100963 100963 100963 100963 100963 100963 100963 100963 100963 100963 100963 100963
          100963 100963 100963 100963 100963 100963 100963 100963 100963 100963 100963 100963
          100963 100963 100963 100963 100963 100963 100963 100963 100963 100963 100963 100963
          100963 100963 100963 100963 100963 100963 100963 100963 100963 100963 100963 100963
          100963 100963 100963 100963 100963 100963 100963 100963 100963 100963 100963 100963
          100963 100963 100963 100963 100963 100963 100963 100963 100963 100963 100963 100963
          100963 100963 100963 100963 100963 100963 100963 100963 100963 100963 100963 100963
          100963 100963 100963 100963 100963 100963 100963 100963 100963 100963 100963 100963
          100963 100963 100963 100963 100963 100963 100963 100963 100963 100962 100962 100962
          100962 100962 100962 100962 100962 100962 100962 100962 100962 100962 100962 100962
          100962 100962 100962 100962 100962 100962 100962 100962 100962 100962 100962 100962
          100962 100962 100962 100962 100962 100962 100962 100962 100962 100962 100962 100962
          100962 100962 100962 100962 100962 100962 100962 100962 100962 100962 100962 100962
          100962 100962 100962 100962 100962 100962 100962 100962 100962 100962 100962 100962
          100962 100962 100962 100962 100962 100962 100962 100962 100962 100962 100962 100962
          100962 100962 100962 100962 100962 100962 100962 100962 100962 100962 100962 100962
          100962 100962 100962 100962 100962 100962 100962 100962 100962 100962 100962 100962
          100962 100962 100962 100962 100962 100962 100962 100962 100962 100962 100962 100962
          100962 100962 100962 100962 100962 100962 100962 100962 100962 100962 100962 100962
          100962 100962 100962 100962 100962 100962 100962 100962 100962 100962 100962 100962
          100962 100962 100962 100962 100962 100962 100962 100962 100962 100962 100962 100962
          100962 100962 100962 100962 100962 100962 100962 100962 100962 100962 100962 100962
          100962 100962 100962 100962 100962 100962 100962 100962 100962 100962 100962 100962
          100962 100962 100962 100962 100962 100962 100962 100962 100962 100962 100962 100962
          100962 100962 100962 100962 100962 100962 100962 100962 100962 100962 100962 100962
          100962 100962 100962 100962 100962 100962 100962 100962 100962 100962 100962 100962
          100962 100962 100962 100962 100962 100962 100962 100962 100962 100962 100962 100962
          100962 100962 100962 100962 100962 100962 100962 100962 100962 100962 100962 100962
          100962 100962 100962 100962 100962 100962 100962 100962 100962 100962 100962 100962
          100962 100962 100962 100962 100962 100962 100962 100962 100962 100962 100962 100962
          100962 100962 100962 100962 100962 100962 100962 100962 100962 100962 100962 100962
          100962 100962 100962 100962 100962 100962 100962 100962 100962 100962 100962 100962
          100962 100962 100962 100962 100962 100962 100962 100962 100962 100962 100962 100962
          100962 100962 100962 100962 100962 100962 100962 100962 100962 100962 100962 100962
          100962 100962 100962 100962 100962 100962 100962 100962 100962 100962 100962 100962
          100962 100962 100962 100962 100962 100962 100962 100962 100962 100962 100962 100962
          100962 100962 100962 100962 100962 100962 100962 100962 100962 100962 100962 100962
          100962 100962 100962 100962 100962 100962 100962 100962 100962 100962 100962 100962
          100962 100962 100962 100962 100962 100962 100962 100962 100962 100962 100962 100962
          100962 100962 100962 100962 100962 100962 100962 100962 100962 100962 100962 100962
          100962 100962 100962 100962 100962 100962 100962 100962 100962 100962 100962 100962
          100962 100962 100962 100962 100962 100962 100962 100962 100962 100962 100962 100962
          100962 100962 100962 100962 100962 100962 100962 100962 100962 100962 100962 100962
          100962 100962 100962 100962 100962 100962 100962 100962 100962 100962 100962 100962
          100962 100962 100962 100962 100962 100962 100962 100962 100962 100962 100962 100962
          100962 100962 100962 100962 100962 100962 100962 100962 100962 100962 100962 100962
          100962 100962 100962 100962 100962 100962 100962 100962 100962 100962 100962 100962
          100962 100962 100962 100962 100962 100962 100962 100962 100962 100962 100962 100962
          100962 100962 100962 100962 100962 100962 100962 100962 100962 100962 100962 100962
          100962 100962 100962 100962 100962 100962 100962 100962 100962 100962 100962 100962
          100962 100962 100962 100962 100962 100962 100962 100962 100962 100962 100962 100962
          100962 100962 100962 100962 100962 100962 100962 100962 100962 100962 100962 100962
          100962 100962 100962 100962 100962 100962 100962 100962 100962 100962 100962 100962
          100962 100962 100962 100962 100962 100962 100962 100962 100962 100962 100962 100962
          100962 100962 100962 100962 100962 100962 100962 100962 100962 100962 100962 100962
          100962 100962 100962 100962 100962 100962 100962 100962 100962 100962 100962 100962
          100961 100961 100961 100961 100961 100961 100961 100961 100961 100961 100961 100961
          100961 100961 100961 100961 100961 100961 100961 100961 100961 100961 100961 100961
          100961 100961 100961 100961 100961 100961 100961 100961 100961 100961 100961 100961
          100961 100961 100961 100961 100961 100961 100961 100961 100961 100961 100961 100961
          100961 100961 100961 100961 100961 100961 100961 100961 100961 100961 100961 100961
          100961 100961 100961 100961 100961 100961 100961 100961 100961 100961 100961 100961
          100961 100961 100961 100961 100961 100961 100961 100961 100961 100961 100961 100961
          100961 100961 100961 100961 100961 100961 100961 100961 100961 100961 100961 100961
          100961 100961 100961 100961 100961 100961 100961 100961 100961 100961 100961 100961
          100961 100961 100961 100961 100961 100961 100961 100961 100961 100961 100961 100961
          100961 100961 100961 100961 100961 100961 100961 100961 100961 100961 100961 100961
          100961 100961 100961 100961 100961 100961 100961 100961 100961 100961 100961 100961
          100961 100961 100961 100961 100961 100961 100961 100961 100961 100961 100961 100961
          100961 100961 100961 100961 100961 100961 100961 100961 100961 100961 100961 100961
          100961 100961 100961 100961 100961 100961 100961 100961 100961 100961 100961 100961
          100961 100961 100961 100961 100961 100961 100961 100961 100961 100961 100961 100961
          100961 100961 100961 100961 100961 100961 100961 100961 100961 100961 100961 100961
          100961 100961 100961 100961 100961 100961 100961 100961 100961 100961 100961 100961
          100961 100961 100961 100961 100961 100961 100961 100961 100961 100961 100961 100961
          100961 100961 100961 100961 100961 100961 100961 100961 100961 100961 100961 100961
          100961 100961 100961 100961 100961 100961 100961 100961 100961 100961 100961 100961
          100961 100961 100961 100961 100961 100961 100961 100961 100961 100961 100961 100961
          100961 100961 100961 100961 100961 100961 100961 100961 100961 100961 100961 100961
          100961 100961 100961 100961 100961 100961 100961 100961 100961 100961 100961 100961
          100961 100961 100961 100961 100961 100961 100961 100961 100961 100961 100961 100961
          100961 100961 100961 100961 100961 100961 100961 100961 100961 100961 100961 100961
          100961 100961 100961 100961 100961 100961 100961 100961 100961 100961 100961 100961
          100961 100961 100961 100961 100961 100961 100961 100961 100961 100961 100961 100961
          100961 100961 100961 100961 100961 100961 100961 100961 100961 100961 100961 100961
          100961 100961 100961 100961 100961 100961 100961 100961 100961 100961 100961 100961
          100961 100961 100961 100961 100961 100961 100961 100961 100961 100961 100961 100961
          100961 100961 100961 100961 100961 100961 100961 100961 100961 100961 100961 100961
          100961 100961 100961 100961 100961 100961 100961 100961 100961 100961 100961 100961
          100961 100961 100961 100961 100961 100961 100961 100961 100961 100961 100961 100961
          100961 100961 100961 100961 100961 100961 100961 100961 100961 100961 100961 100961
          100961 100961 100961 100961 100961 100961 100961 100961 100961 100961 100961 100961
          100961 100961 100961 100960 100960 100961 100961 100961 100961 100961 100961 100961
          100961 100961 100960 100960 100961 100961 100961 100961 100961 100961 100961 100960
          100960 100960 100960 100961 100961 100961 100961 100961 100961 100961 100960 100960
          100960 100960 100961 100961 100961 100961 100961 100961 100960 100960 100960 100960
          100961 100961 100961 100962 100962 100961 100961 100960 100960 100960 100960 100961
          100961 100961 100961 100961 100961 100960 100960 100959 100960 100961 100961 100961
          100962 100962 100962 100961 100960 100959 100959 100960 100961 100962 100962 100962
          100962 100961 100960 100959 100958 100960 100961 100962 100962 100963 100963 100962
          100962 100960 100956 100956 100960 100962 100962 100962 100962 100962 100962 100960
          100956 100956 100960 100962 100962 100962 100963 100963 100963 100963 100963 100950
          100950 100963 100963 100963 100963 100963 100963 100963 100963 100950 100950 100963
          100963 100963 100963
        </DataArray>
        <DataArray type="Float32" Name="density_w" NumberOfComponents="1" format="ascii">
          1000 1000 1000 1000 1000 1000 1000 1000 1000 1000 1000 1000
          1000 1000 1000 1000 1000 1000 1000 1000 1000 1000 1000 1000
          1000 1000 1000 1000 1000 1000 1000 1000 1000 1000 1000 1000
          1000 1000 1000 1000 1000 1000 1000 1000 1000 1000 1000 1000
          1000 1000 1000 1000 1000 1000 1000 1000 1000 1000 1000 1000
          1000 1000 1000 1000 1000 1000 1000 1000 1000 1000 1000 1000
          1000 1000 1000 1000 1000 1000 1000 1000 1000 1000 1000 1000
          1000 1000 1000 1000 1000 1000 1000 1000 1000 1000 1000 1000
          1000 1000 1000 1000 1000 1000 1000 1000 1000 1000 1000 1000
          1000 1000 1000 1000 1000 1000 1000 1000 1000 1000 1000 1000
          1000 1000 1000 1000 1000 1000 1000 1000 1000 1000 1000 1000
          1000 1000 1000 1000 1000 1000 1000 1000 1000 1000 1000 1000
          1000 1000 1000 1000 1000 1000 1000 1000 1000 1000 1000 1000
          1000 1000 1000 1000 1000 1000 1000 1000 1000 1000 1000 1000
          1000 1000 1000 1000 1000 1000 1000 1000 1000 1000 1000 1000
          1000 1000 1000 1000 1000 1000 1000 1000 1000 1000 1000 1000
          1000 1000 1000 1000 1000 1000 1000 1000 1000 1000 1000 1000
          1000 1000 1000 1000 1000 1000 1000 1000 1000 1000 1000 1000
          1000 1000 1000 1000 1000 1000 1000 1000 1000 1000 1000 1000
          1000 1000 1000 1000 1000 1000 1000 1000 1000 1000 1000 1000
          1000 1000 1000 1000 1000 1000 1000 1000 1000 1000 1000 1000
          1000 1000 1000 1000 1000 1000 1000 1000 1000 1000 1000 1000
          1000 1000 1000 1000 1000 1000 1000 1000 1000 1000 1000 1000
          1000 1000 1000 1000 1000 1000 1000 1000 1000 1000 1000 1000
          1000 1000 1000 1000 1000 1000 1000 1000 1000 1000 1000 1000
          1000 1000 1000 1000 1000 1000 1000 1000 1000 1000 1000 1000
          1000 1000 1000 1000 1000 1000 1000 1000 1000 1000 1000 1000
          1000 1000 1000 1000 1000 1000 1000 1000 1000 1000 1000 1000
          1000 1000 1000 1000 1000 1000 1000 1000 1000 1000 1000 1000
          1000 1000 1000 1000 1000 1000 1000 1000 1000 1000 1000 1000
          1000 1000 1000 1000 1000 1000 1000 1000 1000 1000 1000 1000
          1000 1000 1000 1000 1000 1000 1000 1000 1000 1000 1000 1000
          1000 1000 1000 1000 1000 1000 1000 1000 1000 1000 1000 1000
          1000 1000 1000 1000 1000 1000 1000 1000 1000 1000 1000 1000
          1000 1000 1000 1000 1000 1000 1000 1000 1000 1000 1000 1000
          1000 1000 1000 1000 1000 1000 1000 1000 1000 1000 1000 1000
          1000 1000 1000 1000 1000 1000 1000 1000 1000 1000 1000 1000
          1000 1000 1000 1000 1000 1000 1000 1000 1000 1000 1000 1000
          1000 1000 1000 1000 1000 1000 1000 1000 1000 1000 1000 1000
          1000 1000 1000 1000 1000 1000 1000 1000 1000 1000 1000 1000
          1000 1000 1000 1000 1000 1000 1000 1000 1000 1000 1000 1000
          1000 1000 1000 1000 1000 1000 1000 1000 1000 1000 1000 1000
          1000 1000 1000 1000 1000 1000 1000 1000 1000 1000 1000 1000
          1000 1000 1000 1000 1000 1000 1000 1000 1000 1000 1000 1000
          1000 1000 1000 1000 1000 1000 1000 1000 1000 1000 1000 1000
          1000 1000 1000 1000 1000 1000 1000 1000 1000 1000 1000 1000
          1000 1000 1000 1000 1000 1000 1000 1000 1000 1000 1000 1000
          1000 1000 1000 1000 1000 1000 1000 1000 1000 1000 1000 1000
          1000 1000 1000 1000 1000 1000 1000 1000 1000 1000 1000 1000
          1000 1000 1000 1000 1000 1000 1000 1000 1000 1000 1000 1000
          1000 1000 1000 1000 1000 1000 1000 1000 1000 1000 1000 1000
          1000 1000 1000 1000 1000 1000 1000 1000 1000 1000 1000 1000
          1000 1000 1000 1000 1000 1000 1000 1000 1000 1000 1000 1000
          1000 1000 1000 1000 1000 1000 1000 1000 1000 1000 1000 1000
          1000 1000 1000 1000 1000 1000 1000 1000 1000 1000 1000 1000
          1000 1000 1000 1000 1000 1000 1000 1000 1000 1000 1000 1000
          1000 1000 1000 1000 1000 1000 1000 1000 1000 1000 1000 1000
          1000 1000 1000 1000 1000 1000 1000 1000 1000 1000 1000 1000
          1000 1000 1000 1000 1000 1000 1000 1000 1000 1000 1000 1000
          1000 1000 1000 1000 1000 1000 1000 1000 1000 1000 1000 1000
          1000 1000 1000 1000 1000 1000 1000 1000 1000 1000 1000 1000
          1000 1000 1000 1000 1000 1000 1000 1000 1000 1000 1000 1000
          1000 1000 1000 1000 1000 1000 1000 1000 1000 1000 1000 1000
          1000 1000 1000 1000 1000 1000 1000 1000 1000 1000 1000 1000
          1000 1000 1000 1000 1000 1000 1000 1000 1000 1000 1000 1000
          1000 1000 1000 1000 1000 1000 1000 1000 1000 1000 1000 1000
          1000 1000 1000 1000 1000 1000 1000 1000 1000 1000 1000 1000
          1000 1000 1000 1000 1000 1000 1000 1000 1000 1000 1000 1000
          1000 1000 1000 1000 1000 1000 1000 1000 1000 1000 1000 1000
          1000 1000 1000 1000 1000 1000 1000 1000 1000 1000 1000 1000
          1000 1000 1000 1000 1000 1000 1000 1000 1000 1000 1000 1000
          1000 1000 1000 1000 1000 1000 1000 1000 1000 1000 1000 1000