<?xml version="1.0"?>
<VTKFile type="UnstructuredGrid" version="0.1" byte_order="LittleEndian">
  <UnstructuredGrid>
    <Piece NumberOfCells="150" NumberOfPoints="204">
      <PointData Scalars="pressure_w">
        <DataArray type="Float32" Name="pressure_w" NumberOfComponents="1" format="ascii">
          122471 141477 108271 107320 138748 106246 137797 105119 136747 104095 135803 103154
          134954 102307 134209 101561 133569 100918 133031 100377 132586 99927.9 132224 99561.1
          131933 99265.9 131703 99031.5 131522 98847.6 131383 98704.9 131276 98595.3 131195 98511.8
          131134 98448.8 131088 98401.6 131054 98366.5 131029 98340.5 131010 98321.4 130997 98307.5
          130987 98297.4 130980 98290.2 130975 98285.1 130972 98281.6 130970 98279.2 130968 98277.9
          130968 98277.3 130968 98277.5 130969 98278.3 130970 98279.9 130973 98282.3 130976 98285.7
          130980 98290.3 130986 98296.3 130994 98304.2 131004 98314.3 131017 98326.9 131032 98342.6
          131051 98361.8 131074 98384.8 131101 98412.1 131133 98443.6 131167 98479.5 131266 98545.3
          131311 98825.9 132808 98575.2 112585 98437 96892.5 95724.4 94588.7 93499.9 92474.9 91534.5
          90687.3 89941.6 89298.6 88757.2 88308.1 87941.2 87646 87411.5 87227.5 87084.8 86975.2 86891.7
          86828.7 86781.4 86746.3 86720.3 86701.2 86687.3 86677.2 86670 86664.8 86661.3 86659 86657.6
          86657.1 86657.2 86658 86659.6 86662 86665.4 86670 86676.1 86684 86694 86706.7 86722.4
          86741.5 86764.6 86791.8 86823.3 86859.1 86897 86915.8 86985.7 87056.4 96874.8 95679.3 94546.2
          93457.3 92432.9 91493.6 90426.6 89681.3 89257.6 88716.8 88267.8 87901 87605.9 87371.5 87187.6
          87044.9 86935.2 86851.8 86788.8 86741.6 86706.4 86680.4 86661.4 86647.4 86637.3 86630.1 86625
          86621.4 86619.1 86617.8 86617.2 86617.3 86618.2 86619.8 86622.2 86625.6 86630.1 86636.2 86644.1
          86654.1 86666.8 86682.5 86701.7 86724.7 86751.9 86783.4 86819.2 86855.2 86879.5 86942.9 87039.8
        </DataArray>
        <DataArray type="Float32" Name="pressure_n" NumberOfComponents="1" format="ascii">
          122471 141477 108271 107320 138748 106246 137797 105119 136747 104095 135803 103154
          134954 102307 134209 101561 133569 100918 133031 100377 132586 99927.9 132224 99561.1
          131933 99265.9 131703 99031.5 131522 98847.6 131383 98704.9 131276 98595.3 131195 98511.8
          131134 98448.8 131088 98401.6 131054 98366.5 131029 98340.5 131010 98321.4 130997 98307.5
          130987 98297.4 130980 98290.2 130975 98285.1 130972 98281.6 130970 98279.2 130968 98277.9
          130968 98277.3 130968 98277.5 130969 98278.3 130970 98279.9 130973 98282.3 130976 98285.7
          130980 98290.3 130986 98296.3 130994 98304.2 131004 98314.3 131017 98326.9 131032 98342.6
          131051 98361.8 131074 98384.8 131101 98412.1 131133 98443.6 131167 98479.5 131266 98545.3
          131311 98825.9 132808 98575.2 112585 98437 96892.5 95724.4 94588.7 93499.9 92474.9 91534.5
          90687.3 89941.6 89298.6 88757.2 88308.1 87941.2 87646 87411.5 87227.5 87084.8 86975.2 86891.7
          86828.7 86781.4 86746.3 86720.3 86701.2 86687.3 86677.2 86670 86664.8 86661.3 86659 86657.6
          86657.1 86657.2 86658 86659.6 86662 86665.4 86670 86676.1 86684 86694 86706.7 86722.4
          86741.5 86764.6 86791.8 86823.3 86859.1 86897 86915.8 86985.7 87056.4 96874.8 95679.3 94546.2
          93457.3 92432.9 91493.6 90655.1 89909.8 89257.6 88716.8 88267.8 87901 87605.9 87371.5 87187.6
          87044.9 86935.2 86851.8 86788.8 86741.6 86706.4 86680.4 86661.4 86647.4 86637.3 86630.1 86625
          86621.4 86619.1 86617.8 86617.2 86617.3 86618.2 86619.8 86622.2 86625.6 86630.1 86636.2 86644.1
          86654.1 86666.8 86682.5 86701.7 86724.7 86751.9 86783.4 86819.2 86855.2 86879.5 86942.9 87039.8
        </DataArray>
        <DataArray type="Float32" Name="pressure_g" NumberOfComponents="1" format="ascii">
          123777 142752 109815 108697 140026 107590 139075 106466 138026 105441 137083 104500
          136235 103652 135491 102906 134851 102263 134313 101722 133869 101272 133507 100906
          133216 100610 132986 100376 132806 100192 132667 100049 132560 99939.5 132479 99856
          132418 99793 132372 99745.8 132338 99710.7 132313 99684.7 132295 99665.6 132281 99651.7
          132272 99641.6 132265 99634.4 132260 99629.2 132256 99625.7 132254 99623.4 132253 99622
          132252 99621.5 132252 99621.6 132253 99622.4 132255 99624 132257 99626.4 132260 99629.8
          132265 99634.4 132271 99640.5 132279 99648.4 132289 99658.4 132301 99671.1 132316 99686.8
          132335 99706 132358 99729 132385 99756.2 132417 99787.8 132451 99823.6 132551 99889.3
          132595 100169 134090 99949.6 113889 99980.9 109817 108649 107513 106424 105399 104459
          103612 102866 102223 101682 101233 100866 100570 100336 100152 100009 99899.7 99816.2
          99753.2 99706 99670.8 99644.8 99625.8 99611.8 99601.7 99594.5 99589.4 99585.8 99583.5 99582.2
          99581.6 99581.7 99582.6 99584.1 99586.5 99589.9 99594.5 99600.6 99608.5 99618.5 99631.2 99646.9
          99666.1 99689.1 99716.3 99747.9 99783.6 99821.5 99840.3 99910.2 99980.9 109799 108604 107471
          106382 105357 104418 103571 102825 102182 101641 101192 100826 100530 100296 100112
          99969.4 99859.8 99776.3 99713.3 99666.1 99630.9 99605 99585.9 99572 99561.9 99554.6 99549.5
          99546 99543.7 99542.3 99541.7 99541.9 99542.7 99544.3 99546.7 99550.1 99554.7 99560.8 99568.6
          99578.7 99591.3 99607 99626.2 99649.2 99676.4 99707.9 99743.8 99779.7 99804.1 99867.5 99964.3
        </DataArray>
        <DataArray type="Float32" Name="density_w" NumberOfComponents="1" format="ascii">
          999.723 999.734 999.715 999.715 999.732 999.714 999.732 999.713 999.731 999.713 999.731 999.712
          999.73 999.712 999.73 999.711 999.729 999.711 999.729 999.711 999.729 999.71 999.729 999.71
          999.729 999.71 999.728 999.71 999.728 999.71 999.728 999.71 999.728 999.71 999.728 999.709
          999.728 999.709 999.728 999.709 999.728 999.709 999.728 999.709 999.728 999.709 999.728 999.709
          999.728 999.709 999.728 999.709 999.728 999.709 999.728 999.709 999.728 999.709 999.728 999.709
          999.728 999.709 999.728 999.709 999.728 999.709 999.728 999.709 999.728 999.709 999.728 999.709
          999.728 999.709 999.728 999.709 999.728 999.709 999.728 999.709 999.728 999.709 999.728 999.709
          999.728 999.709 999.728 999.709 999.728 999.709 999.728 999.709 999.728 999.709 999.728 999.71
          999.728 999.71 999.729 999.71 999.718 999.709 999.71 999.709 999.708 999.708 999.707 999.707
          999.706 999.706 999.705 999.705 999.705 999.705 999.704 999.704 999.704 999.704 999.704 999.704
          999.704 999.704 999.704 999.704 999.704 999.704 999.704 999.704 999.704 999.704 999.704 999.704
          999.704 999.704 999.704 999.704 999.704 999.704 999.704 999.704 999.704 999.704 999.704 999.704
          999.704 999.704 999.704 999.704 999.704 999.704 999.704 999.704 999.704 999.71 999.709 999.708
          999.708 999.707 999.726 999.725 999.725 999.707 999.705 999.705 999.705 999.704 999.704 999.704
          999.704 999.704 999.704 999.704 999.704 999.704 999.704 999.704 999.704 999.704 999.704 999.704
          999.704 999.704 999.704 999.704 999.704 999.704 999.704 999.704 999.704 999.704 999.704 999.704
          999.704 999.704 999.704 999.704 999.704 999.704 999.704 999.704 999.704 999.704 999.704 999.704
        </DataArray>
        <DataArray type="Float32" Name="density_n" NumberOfComponents="1" format="ascii">
          878.771 878.771 878.771 878.771 878.771 878.771 878.771 878.771 878.771 878.771 878.771 878.771
          878.771 878.771 878.771 878.771 878.771 878.771 878.771 878.771 878.771 878.771 878.771 878.771
          878.771 878.771 878.771 878.771 878.771 878.771 878.771 878.771 878.771 878.771 878.771 878.771
          878.771 878.771 878.771 878.771 878.771 878.771 878.771 878.771 878.771 878.771 878.771 878.771
          878.771 878.771 878.771 878.771 878.771 878.771 878.771 878.771 878.771 878.771 878.771 878.771
          878.771 878.771 878.771 878.771 878.771 878.771 878.771 878.771 878.771 878.771 878.771 878.771
          878.771 878.771 878.771 878.771 878.771 878.771 878.771 878.771 878.771 878.771 878.771 878.771
          878.771 878.771 878.771 878.771 878.771 878.771 878.771 878.771 878.771 878.771 878.771 878.771
          878.771 878.771 878.771 878.771 878.771 878.771 878.771 878.771 878.771 878.771 878.771 878.771
          878.771 878.771 878.771 878.771 878.771 878.771 878.771 878.771 878.771 878.771 878.771 878.771
          878.771 878.771 878.771 878.771 878.771 878.771 878.771 878.771 878.771 878.771 878.771 878.771
          878.771 878.771 878.771 878.771 878.771 878.771 878.771 878.771 878.771 878.771 878.771 878.771
          878.771 878.771 878.771 878.771 878.771 878.771 878.771 878.771 878.771 878.771 878.771 878.771
          878.771 878.771 878.771 878.771 878.771 878.771 878.771 878.771 878.771 878.771 878.771 878.771
          878.771 878.771 878.771 878.771 878.771 878.771 878.771 878.771 878.771 878.771 878.771 878.771
          878.771 878.771 878.771 878.771 878.771 878.771 878.771 878.771 878.771 878.771 878.771 878.771
          878.771 878.771 878.771 878.771 878.771 878.771 878.771 878.771 878.771 878.771 878.771 878.771
        </DataArray>
        <DataArray type="Float32" Name="density_g" NumberOfComponents="1" format="ascii">
          1.5169 1.75032 1.34515 1.3314 1.71678 1.31778 1.70509 1.30395 1.69218 1.29135 1.68059 1.27977
          1.67015 1.26935 1.66099 1.26017 1.65312 1.25226 1.64651 1.2456 1.64105 1.24007 1.63659 1.23556
          1.63302 1.23193 1.63019 1.22904 1.62798 1.22678 1.62626 1.22502 1.62495 1.22367 1.62395 1.22265
          1.6232 1.22187 1.62264 1.22129 1.62222 1.22086 1.62191 1.22054 1.62168 1.2203 1.62152 1.22013
          1.6214 1.22001 1.62131 1.21992 1.62125 1.21986 1.62121 1.21981 1.62118 1.21979 1.62117 1.21977
          1.62116 1.21976 1.62116 1.21976 1.62117 1.21977 1.62119 1.21979 1.62122 1.21982 1.62126 1.21986
          1.62132 1.21992 1.62139 1.22 1.62148 1.22009 1.62161 1.22022 1.62176 1.22037 1.62195 1.22056
          1.62218 1.2208 1.62246 1.22108 1.6228 1.22142 1.62319 1.22181 1.62361 1.22225 1.62483 1.22306
          1.62538 1.22649 1.64377 1.2238 1.39527 1.22418 1.34518 1.33081 1.31684 1.30345 1.29084 1.27928
          1.26886 1.25969 1.25177 1.24511 1.23958 1.23507 1.23144 1.22855 1.22629 1.22453 1.22318 1.22216
          1.22138 1.2208 1.22037 1.22005 1.21981 1.21964 1.21952 1.21943 1.21937 1.21932 1.21929 1.21928
          1.21927 1.21927 1.21928 1.2193 1.21933 1.21937 1.21943 1.21951 1.2196 1.21973 1.21988 1.22007
          1.22031 1.22059 1.22093 1.22132 1.22176 1.22222 1.22245 1.22331 1.22418 1.34496 1.33025 1.31632
          1.30292 1.29032 1.28312 1.27269 1.26353 1.25159 1.24462 1.23909 1.23457 1.23094 1.22806 1.2258
          1.22404 1.22269 1.22167 1.22089 1.22031 1.21988 1.21956 1.21932 1.21915 1.21903 1.21894 1.21888
          1.21883 1.2188 1.21879 1.21878 1.21878 1.21879 1.21881 1.21884 1.21888 1.21894 1.21901 1.21911
          1.21924 1.21939 1.21958 1.21982 1.2201 1.22044 1.22083 1.22127 1.22171 1.22201 1.22279 1.22398
        </DataArray>
        <DataArray type="Float32" Name="saturation_w" NumberOfComponents="1" format="ascii">
          0.975867 0.985047 0.892561 0.953135 0.984261 0.963969 0.984019 0.96325 0.983746 0.963417 0.983498 0.963486
          0.983271 0.963562 0.98307 0.963627 0.982895 0.963687 0.982747 0.963732 0.982623 0.963771 0.982522 0.963802
          0.98244 0.963828 0.982376 0.963848 0.982325 0.963863 0.982285 0.963876 0.982255 0.963885 0.982232 0.963892
          0.982214 0.963897 0.982201 0.963901 0.982192 0.963904 0.982185 0.963906 0.982179 0.963908 0.982175 0.963909
          0.982173 0.96391 0.982171 0.963911 0.982169 0.963911 0.982168 0.963911 0.982168 0.963912 0.982167 0.963912
          0.982167 0.963912 0.982167 0.963912 0.982167 0.963912 0.982168 0.963912 0.982169 0.963911 0.982169 0.963911
          0.982171 0.963911 0.982172 0.96391 0.982175 0.96391 0.982177 0.963909 0.982181 0.963908 0.982185 0.963906
          0.982191 0.963905 0.982197 0.963902 0.982205 0.9639 0.982214 0.963896 0.982224 0.963918 0.982253 0.963949
          0.982268 0.964337 0.982803 0.954083 0.97641 0.892303 0.119991 0.12 0.12 0.12 0.12 0.12
          0.12 0.12 0.12 0.12 0.12 0.12 0.12 0.12 0.12 0.12 0.12 0.12
          0.12 0.12 0.12 0.12 0.12 0.12 0.12 0.12 0.12 0.12 0.12 0.12
          0.12 0.12 0.12 0.12 0.12 0.12 0.12 0.12 0.12 0.12 0.12 0.12
          0.12 0.12 0.12 0.12 0.12 0.12 0.12 0.12 0.119999 0.11999 0.12 0.12
          0.12 0.12 0.120001 0.120001 0.120001 0.12 0.12 0.12 0.12 0.12 0.12 0.12
          0.12 0.12 0.12 0.12 0.12 0.12 0.12 0.12 0.12 0.12 0.12 0.12
          0.12 0.12 0.12 0.12 0.12 0.12 0.12 0.12 0.12 0.12 0.12 0.12
          0.12 0.12 0.12 0.12 0.12 0.12 0.12 0.12 0.12 0.12 0.12 0.119999
        </DataArray>
        <DataArray type="Float32" Name="saturation_n" NumberOfComponents="1" format="ascii">
          0 0 0 0 0 0 0 0 0 0 0 0
          0 0 0 0 0 0 0 0 0 0 0 0
          0 0 0 0 0 0 0 0 0 0 0 0
          0 0 0 0 0 0 0 0 0 0 0 0
          0 0 0 0 0 0 0 0 0 0 0 0
          0 0 0 0 0 0 0 0 0 0 0 0
          0 0 0 0 0 0 0 0 0 0 0 0
          0 0 0 0 0 0 0 0 0 0 0 0
          0 0 0 0 0 0 0 0 0 0 0 0
          0 0 0 0 0 0 0 0 0 0 0 0
          0 0 0 0 0 0 0 0 0 0 0 0
          0 0 0 0 0 0 0 0 0 0 0 0
          0 0 0 0 0 0 0 0 0 0 0 0
          0 0 0.000604633 0.00122061 0.00122057 0 0 0 0 0 0 0
          0 0 0 0 0 0 0 0 0 0 0 0
          0 0 0 0 0 0 0 0 0 0 0 0
          0 0 0 0 0 0 0 0 0 0 0 0
        </DataArray>
        <DataArray type="Float32" Name="saturation_g" NumberOfComponents="1" format="ascii">
          0.0241334 0.0149528 0.107439 0.0468648 0.0157392 0.0360312 0.015981 0.0367503 0.0162539 0.0365827 0.0165024 0.0365141
          0.0167291 0.0364381 0.0169304 0.036373 0.0171052 0.036313 0.0172534 0.0362677 0.0173768 0.0362293 0.017478 0.0361978
          0.0175595 0.0361724 0.0176244 0.0361523 0.0176753 0.0361366 0.0177148 0.0361244 0.0177451 0.0361151 0.0177682 0.036108
          0.0177856 0.0361027 0.0177986 0.0360987 0.0178083 0.0360957 0.0178155 0.0360935 0.0178207 0.0360919 0.0178246 0.0360907
          0.0178273 0.0360899 0.0178293 0.0360893 0.0178307 0.0360889 0.0178317 0.0360886 0.0178323 0.0360884 0.0178327 0.0360883
          0.0178329 0.0360882 0.0178328 0.0360882 0.0178326 0.0360883 0.0178321 0.0360884 0.0178315 0.0360886 0.0178305 0.0360889
          0.0178292 0.0360893 0.0178275 0.0360898 0.0178253 0.0360905 0.0178225 0.0360914 0.017819 0.0360925 0.0178145 0.0360938
          0.0178091 0.0360955 0.0178026 0.0360975 0.0177949 0.0360998 0.0177858 0.0361037 0.0177761 0.0360818 0.0177472 0.0360511
          0.0177323 0.0356632 0.0171973 0.0459174 0.0235898 0.107697 0.880009 0.88 0.88 0.88 0.88 0.88
          0.88 0.88 0.88 0.88 0.88 0.88 0.88 0.88 0.88 0.88 0.88 0.88
          0.88 0.88 0.88 0.88 0.88 0.88 0.88 0.88 0.88 0.88 0.88 0.88
          0.88 0.88 0.88 0.88 0.88 0.88 0.88 0.88 0.88 0.88 0.88 0.88
          0.88 0.88 0.88 0.88 0.88 0.88 0.88 0.88 0.880001 0.88001 0.88 0.88
          0.88 0.88 0.879395 0.878779 0.878779 0.88 0.88 0.88 0.88 0.88 0.88 0.88
          0.88 0.88 0.88 0.88 0.88 0.88 0.88 0.88 0.88 0.88 0.88 0.88
          0.88 0.88 0.88 0.88 0.88 0.88 0.88 0.88 0.88 0.88 0.88 0.88
          0.88 0.88 0.88 0.88 0.88 0.88 0.88 0.88 0.88 0.88 0.88 0.880001
        </DataArray>
        <DataArray type="Float32" Name="relativePerm_w" NumberOfComponents="1" format="ascii">
          0.828681 0.879286 0.523895 0.725292 0.874641 0.771611 0.873227 0.768391 0.871638 0.769139 0.870199 0.769446
          0.868891 0.769786 0.867733 0.770078 0.866732 0.770346 0.865885 0.770549 0.865182 0.770722 0.864607 0.770863
          0.864144 0.770977 0.863776 0.771067 0.863487 0.771138 0.863264 0.771192 0.863092 0.771234 0.862961 0.771266
          0.862863 0.77129 0.862789 0.771308 0.862734 0.771321 0.862694 0.771331 0.862664 0.771338 0.862643 0.771344
          0.862627 0.771348 0.862616 0.77135 0.862608 0.771352 0.862602 0.771353 0.862599 0.771354 0.862597 0.771355
          0.862596 0.771355 0.862596 0.771355 0.862597 0.771355 0.8626 0.771354 0.862604 0.771353 0.862609 0.771352
          0.862616 0.77135 0.862626 0.771348 0.862638 0.771345 0.862654 0.771341 0.862674 0.771336 0.862699 0.77133
          0.86273 0.771322 0.862767 0.771313 0.862811 0.771303 0.862862 0.771285 0.862917 0.771384 0.86308 0.771522
          0.863165 0.773268 0.866206 0.729168 0.831487 0.523185 0 1.00881e-21 1.03528e-21 7.77515e-22 5.1775e-22 3.21584e-22
          1.80553e-22 9.35874e-23 4.32714e-23 1.87446e-23 7.28251e-24 2.44928e-24 6.66316e-25 1.25242e-25 9.83324e-27 2.11925e-31 0 0
          0 0 0 0 0 0 0 0 0 0 0 0
          0 0 0 0 0 0 0 0 0 0 0 0
          0 0 0 0 0 0 0 0 0 0 9.64448e-22 1.01484e-21
          7.59592e-22 5.03989e-22 1.37863e-20 1.27338e-20 1.08645e-20 1.04364e-22 1.83017e-23 6.53885e-24 2.09451e-24 5.24138e-25 8.23327e-26 3.50991e-27
          0 0 0 0 0 0 0 0 0 0 0 0
          0 0 0 0 0 0 0 0 0 0 0 0
          0 0 0 0 0 0 0 0 0 0 0 0
        </DataArray>
        <DataArray type="Float32" Name="relativePerm_n" NumberOfComponents="1" format="ascii">
          0 0 0 0 0 0 0 0 0 0 0 0
          0 0 0 0 0 0 0 0 0 0 0 0
          0 0 0 0 0 0 0 0 0 0 0 0
          0 0 0 0 0 0 0 0 0 0 0 0
          0 0 0 0 0 0 0 0 0 0 0 0
          0 0 0 0 0 0 0 0 0 0 0 0
          0 0 0 0 0 0 0 0 0 0 0 0
          0 0 0 0 0 0 0 0 0 0 0 0
          0 0 0 0 0 0 0 0 0 0 0 0
          0 0 0 0 0 0 0 0 0 0 0 0
          0 0 0 0 0 0 0 0 0 0 0 0
          0 0 0 0 0 0 0 0 0 0 0 0
          0 0 0 0 0 0 0 0 0 0 0 0
          0 0 5.4324e-11 5.01875e-10 5.01795e-10 0 0 0 0 0 0 0
          0 0 0 0 0 0 0 0 0 0 0 0
          0 0 0 0 0 0 0 0 0 0 0 0
          0 0 0 0 0 0 0 0 0 0 0 0
        </DataArray>
        <DataArray type="Float32" Name="relativePerm_g" NumberOfComponents="1" format="ascii">
          0 0 0.0264849 0.00141722 0 0.000313906 0 0.000364222 0 0.00035223 0 0.000347368
          0 0.000342016 0 0.000337454 0 0.000333274 0 0.00033013 0 0.000327475 0 0.000325298
          0 0.000323553 0 0.000322173 0 0.000321095 0 0.000320261 0 0.000319622 0 0.000319138
          0 0.000318773 0 0.0003185 0 0.000318298 0 0.000318148 0 0.000318039 0 0.000317959
          0 0.000317901 0 0.00031786 0 0.000317831 0 0.000317811 0 0.000317798 0 0.00031779
          0 0.000317787 0 0.000317788 0 0.000317793 0 0.000317802 0 0.000317816 0 0.000317836
          0 0.000317862 0 0.000317898 0 0.000317944 0 0.000318003 0 0.000318078 0 0.000318171
          0 0.000318285 0 0.000318424 0 0.00031858 0 0.000318847 0 0.00031735 0 0.000315259
          0 0.000289283 0 0.00128877 0 0.0265998 0.907725 0.907714 0.907714 0.907714 0.907714 0.907714
          0.907714 0.907714 0.907714 0.907714 0.907714 0.907714 0.907714 0.907714 0.907714 0.907714 0.907714 0.907714
          0.907714 0.907714 0.907714 0.907714 0.907714 0.907714 0.907714 0.907714 0.907714 0.907714 0.907714 0.907714
          0.907714 0.907714 0.907714 0.907714 0.907714 0.907714 0.907714 0.907714 0.907714 0.907714 0.907714 0.907714
          0.907714 0.907714 0.907714 0.907714 0.907714 0.907714 0.907714 0.907714 0.907715 0.907726 0.907714 0.907714
          0.907714 0.907714 0.90697 0.906212 0.906212 0.907714 0.907714 0.907714 0.907714 0.907714 0.907714 0.907714
          0.907714 0.907714 0.907714 0.907714 0.907714 0.907714 0.907714 0.907714 0.907714 0.907714 0.907714 0.907714
          0.907714 0.907714 0.907714 0.907714 0.907714 0.907714 0.907714 0.907714 0.907714 0.907714 0.907714 0.907714
          0.907714 0.907714 0.907714 0.907714 0.907714 0.907714 0.907714 0.907714 0.907714 0.907714 0.907714 0.907715
        </DataArray>
        <DataArray type="Float32" Name="porosity" NumberOfComponents="1" format="ascii">
          0.4 0.4 0.4 0.4 0.4 0.4 0.4 0.4 0.4 0.4 0.4 0.4
          0.4 0.4 0.4 0.4 0.4 0.4 0.4 0.4 0.4 0.4 0.4 0.4
          0.4 0.4 0.4 0.4 0.4 0.4 0.4 0.4 0.4 0.4 0.4 0.4
          0.4 0.4 0.4 0.4 0.4 0.4 0.4 0.4 0.4 0.4 0.4 0.4
          0.4 0.4 0.4 0.4 0.4 0.4 0.4 0.4 0.4 0.4 0.4 0.4
          0.4 0.4 0.4 0.4 0.4 0.4 0.4 0.4 0.4 0.4 0.4 0.4
          0.4 0.4 0.4 0.4 0.4 0.4 0.4 0.4 0.4 0.4 0.4 0.4
          0.4 0.4 0.4 0.4 0.4 0.4 0.4 0.4 0.4 0.4 0.4 0.4
          0.4 0.4 0.4 0.4 0.4 0.4 0.4 0.4 0.4 0.4 0.4 0.4
          0.4 0.4 0.4 0.4 0.4 0.4 0.4 0.4 0.4 0.4 0.4 0.4
          0.4 0.4 0.4 0.4 0.4 0.4 0.4 0.4 0.4 0.4 0.4 0.4
          0.4 0.4 0.4 0.4 0.4 0.4 0.4 0.4 0.4 0.4 0.4 0.4
          0.4 0.4 0.4 0.4 0.4 0.4 0.4 0.4 0.4 0.4 0.4 0.4
          0.4 0.4 0.4 0.4 0.4 0.4 0.4 0.4 0.4 0.4 0.4 0.4
          0.4 0.4 0.4 0.4 0.4 0.4 0.4 0.4 0.4 0.4 0.4 0.4
          0.4 0.4 0.4 0.4 0.4 0.4 0.4 0.4 0.4 0.4 0.4 0.4
          0.4 0.4 0.4 0.4 0.4 0.4 0.4 0.4 0.4 0.4 0.4 0.4
        </DataArray>
        <DataArray type="Float32" Name="moleFrac_w^H2O" NumberOfComponents="1" format="ascii">
          0.999981 0.999979 0.999984 0.999984 0.999979 0.999984 0.999979 0.999984 0.999979 0.999984 0.999979 0.999984
          0.99998 0.999985 0.99998 0.999985 0.99998 0.999985 0.99998 0.999985 0.99998 0.999985 0.99998 0.999985
          0.99998 0.999985 0.99998 0.999985 0.99998 0.999985 0.99998 0.999985 0.99998 0.999985 0.99998 0.999985
          0.99998 0.999985 0.99998 0.999985 0.99998 0.999985 0.99998 0.999985 0.99998 0.999985 0.99998 0.999985
          0.99998 0.999985 0.99998 0.999985 0.99998 0.999985 0.99998 0.999985 0.99998 0.999985 0.99998 0.999985
          0.99998 0.999985 0.99998 0.999985 0.99998 0.999985 0.99998 0.999985 0.99998 0.999985 0.99998 0.999985
          0.99998 0.999985 0.99998 0.999985 0.99998 0.999985 0.99998 0.999985 0.99998 0.999985 0.99998 0.999985
          0.99998 0.999985 0.99998 0.999985 0.99998 0.999985 0.99998 0.999985 0.99998 0.999985 0.99998 0.999985
          0.99998 0.999985 0.99998 0.999985 0.999983 0.999985 0.999984 0.999984 0.999984 0.999984 0.999984 0.999984
          0.999985 0.999985 0.999985 0.999985 0.999985 0.999985 0.999985 0.999985 0.999985 0.999985 0.999985 0.999985
          0.999985 0.999985 0.999985 0.999985 0.999985 0.999985 0.999985 0.999985 0.999985 0.999985 0.999985 0.999985
          0.999985 0.999985 0.999985 0.999985 0.999985 0.999985 0.999985 0.999985 0.999985 0.999985 0.999985 0.999985
          0.999985 0.999985 0.999985 0.999985 0.999985 0.999985 0.999985 0.999985 0.999985 0.999984 0.999984 0.999984
          0.999984 0.999984 0.999981 0.999981 0.999981 0.999984 0.999985 0.999985 0.999985 0.999985 0.999985 0.999985
          0.999985 0.999985 0.999985 0.999985 0.999985 0.999985 0.999985 0.999985 0.999985 0.999985 0.999985 0.999985
          0.999985 0.999985 0.999985 0.999985 0.999985 0.999985 0.999985 0.999985 0.999985 0.999985 0.999985 0.999985
          0.999985 0.999985 0.999985 0.999985 0.999985 0.999985 0.999985 0.999985 0.999985 0.999985 0.999985 0.999985
        </DataArray>
        <DataArray type="Float32" Name="moleFrac_w^mesitylene" NumberOfComponents="1" format="ascii">
          8.30965e-19 5.27093e-18 -1.10585e-18 -1.45945e-18 2.82015e-18 7.22294e-19 -1.86733e-18 7.14748e-19 2.31656e-18 2.77131e-16 4.06725e-14 1.08981e-11
          4.88462e-14 1.13597e-11 4.6036e-14 1.02232e-11 6.65402e-17 1.44468e-13 4.05765e-18 3.85804e-15 5.84166e-18 8.09062e-17 4.48144e-18 -3.38711e-19
          1.78868e-18 -6.75439e-19 4.01757e-18 -1.0108e-18 -2.67475e-18 -6.72629e-19 5.78922e-18 1.00751e-18 -1.3349e-18 2.34827e-18 -4.44694e-19 -2.01112e-18
          3.11142e-18 -1.00493e-18 4.88768e-18 1.00445e-18 2.66533e-18 6.69399e-19 -4.44137e-19 1.00384e-18 2.66445e-18 0 7.10448e-18 -6.69003e-19
          -1.77599e-18 -1.0034e-18 4.43974e-18 -2.3411e-18 1.77583e-18 1.00328e-18 6.21524e-18 6.68829e-19 6.21514e-18 1.33763e-18 -3.55147e-18 1.00321e-18
          3.55146e-18 6.688e-19 7.54686e-18 1.3376e-18 4.88329e-18 3.34403e-19 3.10759e-18 -3.34409e-19 8.87897e-18 1.00325e-18 2.66376e-18 0
          2.21987e-18 3.34444e-19 8.8799e-19 -1.00339e-18 -7.10433e-18 -6.68981e-19 4.88459e-18 1.00357e-18 5.32915e-18 -6.69133e-19 -3.10903e-18 -1.00386e-18
          2.66527e-18 -1.33873e-18 3.55431e-18 1.33904e-18 -3.11066e-18 1.00456e-18 3.1114e-18 -2.00975e-18 5.77981e-18 -1.67539e-18 -2.22467e-18 -1.0059e-18
          3.56066e-18 -2.01742e-18 2.70061e-18 2.34851e-18 0 -2.01364e-18 -7.37247e-19 3.64702e-19 -7.2178e-19 1.07171e-18 1.58501e-13 8.8923e-09
          9.05167e-09 8.51828e-09 6.11196e-10 2.49725e-11 6.76129e-13 1.31222e-14 1.8736e-16 2.35759e-18 3.36181e-19 6.71404e-19 3.35334e-19 -6.70108e-19
          1.00453e-18 -6.69367e-19 -1.0037e-18 2.34135e-18 6.68829e-19 -1.0031e-18 -6.68668e-19 1.00293e-18 1.00288e-18 1.00284e-18 1.00282e-18 0
          2.33986e-18 2.0056e-18 -1.00281e-18 -1.00282e-18 1.00285e-18 2.00577e-18 -6.68619e-19 -6.6866e-19 1.00307e-18 1.67195e-18 6.68866e-19 -1.00346e-18
          6.691e-19 1.00388e-18 1.33887e-18 2.6786e-18 1.00483e-18 6.70143e-19 -6.70269e-19 -6.70739e-19 1.00682e-18 -1.10569e-18 1.09365e-18 1.80374e-18
          -1.42837e-18 5.70551e-11 3.4029e-06 3.40292e-06 3.40295e-06 2.57297e-07 1.02009e-08 2.6794e-10 5.06729e-12 7.14303e-14 7.59178e-16 8.40117e-18
          6.71136e-19 2.0112e-18 1.00476e-18 -6.69417e-19 1.00365e-18 1.0033e-18 0 1.00284e-18 -1.0027e-18 -2.3394e-18 6.68351e-19 -6.68317e-19
          6.68293e-19 1.00242e-18 6.68269e-19 6.68265e-19 1.0024e-18 1.00241e-18 -3.00727e-18 6.68298e-19 -6.68321e-19 -1.00253e-18 -6.68393e-19 -2.33956e-18
          -1.00277e-18 1.3372e-18 2.34046e-18 1.00325e-18 -6.68987e-19 -1.00375e-18 -3.01221e-18 6.69621e-19 1.67466e-18 -1.67507e-18 -3.35226e-19 1.00665e-18
        </DataArray>
        <DataArray type="Float32" Name="moleFrac_w^Air" NumberOfComponents="1" format="ascii">
          1.85537e-05 2.14264e-05 1.64398e-05 1.62706e-05 2.10137e-05 1.6103e-05 2.08698e-05 1.59328e-05 2.07109e-05 1.57776e-05 2.05682e-05 1.56352e-05
          2.04398e-05 1.55069e-05 2.03271e-05 1.53939e-05 2.02302e-05 1.52965e-05 2.01489e-05 1.52146e-05 2.00816e-05 1.51465e-05 2.00268e-05 1.5091e-05
          1.99828e-05 1.50463e-05 1.9948e-05 1.50108e-05 1.99207e-05 1.49829e-05 1.98996e-05 1.49613e-05 1.98835e-05 1.49447e-05 1.98712e-05 1.49321e-05
          1.98619e-05 1.49226e-05 1.9855e-05 1.49154e-05 1.98499e-05 1.49101e-05 1.98461e-05 1.49062e-05 1.98433e-05 1.49033e-05 1.98412e-05 1.49012e-05
          1.98398e-05 1.48996e-05 1.98387e-05 1.48985e-05 1.9838e-05 1.48978e-05 1.98375e-05 1.48972e-05 1.98371e-05 1.48969e-05 1.98369e-05 1.48967e-05
          1.98368e-05 1.48966e-05 1.98369e-05 1.48966e-05 1.9837e-05 1.48967e-05 1.98372e-05 1.4897e-05 1.98376e-05 1.48973e-05 1.98381e-05 1.48978e-05
          1.98388e-05 1.48985e-05 1.98397e-05 1.48995e-05 1.98408e-05 1.49007e-05 1.98423e-05 1.49022e-05 1.98442e-05 1.49041e-05 1.98466e-05 1.49065e-05
          1.98494e-05 1.49094e-05 1.98529e-05 1.49129e-05 1.9857e-05 1.4917e-05 1.98618e-05 1.49218e-05 1.9867e-05 1.49272e-05 1.9882e-05 1.49371e-05
          1.98887e-05 1.49794e-05 2.01151e-05 1.49463e-05 1.70567e-05 1.4951e-05 1.64402e-05 1.62633e-05 1.60914e-05 1.59265e-05 1.57713e-05 1.56289e-05
          1.55007e-05 1.53878e-05 1.52905e-05 1.52085e-05 1.51405e-05 1.5085e-05 1.50403e-05 1.50048e-05 1.49769e-05 1.49553e-05 1.49387e-05 1.49261e-05
          1.49165e-05 1.49094e-05 1.49041e-05 1.49001e-05 1.48972e-05 1.48951e-05 1.48936e-05 1.48925e-05 1.48917e-05 1.48912e-05 1.48908e-05 1.48906e-05
          1.48905e-05 1.48906e-05 1.48907e-05 1.48909e-05 1.48913e-05 1.48918e-05 1.48925e-05 1.48934e-05 1.48946e-05 1.48961e-05 1.48981e-05 1.49004e-05
          1.49033e-05 1.49068e-05 1.49109e-05 1.49157e-05 1.49211e-05 1.49269e-05 1.49297e-05 1.49403e-05 1.4951e-05 1.64375e-05 1.62565e-05 1.60849e-05
          1.59201e-05 1.5765e-05 1.56057e-05 1.54774e-05 1.53646e-05 1.5283e-05 1.52023e-05 1.51344e-05 1.50789e-05 1.50342e-05 1.49987e-05 1.49709e-05
          1.49493e-05 1.49327e-05 1.492e-05 1.49105e-05 1.49033e-05 1.4898e-05 1.48941e-05 1.48912e-05 1.48891e-05 1.48876e-05 1.48865e-05 1.48857e-05
          1.48852e-05 1.48848e-05 1.48846e-05 1.48845e-05 1.48845e-05 1.48847e-05 1.48849e-05 1.48853e-05 1.48858e-05 1.48865e-05 1.48874e-05 1.48886e-05
          1.48901e-05 1.4892e-05 1.48944e-05 1.48973e-05 1.49008e-05 1.49049e-05 1.49097e-05 1.49151e-05 1.49205e-05 1.49242e-05 1.49338e-05 1.49485e-05
        </DataArray>
        <DataArray type="Float32" Name="moleFrac_n^H2O" NumberOfComponents="1" format="ascii">
          1.09016e-05 1.09016e-05 1.09016e-05 1.09016e-05 1.09016e-05 1.09016e-05 1.09016e-05 1.09016e-05 1.09016e-05 1.09017e-05 1.09016e-05 1.09017e-05
          1.09016e-05 1.09017e-05 1.09016e-05 1.09017e-05 1.09016e-05 1.09017e-05 1.09016e-05 1.09017e-05 1.09016e-05 1.09017e-05 1.09016e-05 1.09017e-05
          1.09016e-05 1.09017e-05 1.09016e-05 1.09017e-05 1.09016e-05 1.09017e-05 1.09016e-05 1.09017e-05 1.09016e-05 1.09017e-05 1.09016e-05 1.09017e-05
          1.09016e-05 1.09017e-05 1.09016e-05 1.09017e-05 1.09016e-05 1.09017e-05 1.09016e-05 1.09017e-05 1.09016e-05 1.09017e-05 1.09016e-05 1.09017e-05
          1.09016e-05 1.09017e-05 1.09016e-05 1.09017e-05 1.09016e-05 1.09017e-05 1.09016e-05 1.09017e-05 1.09016e-05 1.09017e-05 1.09016e-05 1.09017e-05
          1.09016e-05 1.09017e-05 1.09016e-05 1.09017e-05 1.09016e-05 1.09017e-05 1.09016e-05 1.09017e-05 1.09016e-05 1.09017e-05 1.09016e-05 1.09017e-05
          1.09016e-05 1.09017e-05 1.09016e-05 1.09017e-05 1.09016e-05 1.09017e-05 1.09016e-05 1.09017e-05 1.09016e-05 1.09017e-05 1.09016e-05 1.09017e-05
          1.09016e-05 1.09017e-05 1.09016e-05 1.09017e-05 1.09016e-05 1.09017e-05 1.09016e-05 1.09017e-05 1.09016e-05 1.09017e-05 1.09016e-05 1.09017e-05