<?xml version="1.0"?>
<VTKFile type="UnstructuredGrid" version="0.1" byte_order="LittleEndian">
  <UnstructuredGrid>
    <Piece NumberOfCells="150" NumberOfPoints="204">
      <PointData Scalars="pressure_w">
        <DataArray type="Float32" Name="pressure_w" NumberOfComponents="1" format="ascii">
          119165 141694 108242 107292 138733 106266 137774 105092 136716 104067 135775 103127
          134929 102282 134188 101540 133552 100902 133019 100365 132579 99920.3 132220 99557
          131932 99264.6 131704 99032.2 131525 98849.6 131386 98707.7 131279 98598.5 131198 98515.1
          131137 98451.9 131091 98404.4 131056 98368.9 131031 98342.6 131012 98323.1 130998 98308.9
          130988 98298.5 130981 98291 130976 98285.6 130972 98281.9 130970 98279.4 130968 98277.8
          130968 98277 130967 98276.9 130968 98277.4 130969 98278.5 130971 98280.4 130974 98283.1
          130977 98286.9 130982 98291.8 130988 98298.3 130997 98306.6 131007 98317.2 131020 98330.4
          131036 98346.6 131056 98366.4 131079 98390 131107 98417.8 131138 98449.7 131186 98486
          131216 98593.7 131768 98559 125222 98521.1 96892.4 95702.3 94559.9 93472.3 92446.2 91506.8
          90662.4 89920.7 89282.3 88745.4 88300.5 87937.2 87644.7 87412.2 87229.6 87087.7 86978.4 86894.9
          86831.7 86784.2 86748.7 86722.3 86702.9 86688.6 86678.2 86670.7 86665.4 86661.6 86659.1 86657.5
          86656.7 86656.6 86657.1 86658.3 86660.2 86662.9 86666.6 86671.6 86678 86686.4 86696.9 86710.1
          86726.4 86746.1 86769.8 86797.5 86829.4 86865.7 86898.6 86947.3 87000.6 96841.5 95661.5 94517.5
          93429.4 92404.2 91465.9 90401.7 89660.4 89241.3 88705 88260.2 87897 87604.6 87372.2 87189.6
          87047.7 86938.4 86855 86791.8 86744.3 86708.8 86682.5 86663 86648.8 86638.4 86630.9 86625.5
          86621.8 86619.2 86617.7 86616.9 86616.8 86617.3 86618.4 86620.3 86623 86626.7 86631.7 86638.2
          86646.5 86657 86670.2 86686.5 86706.3 86729.9 86757.6 86789.6 86825.2 86859.6 86906.7 86967.8
        </DataArray>
        <DataArray type="Float32" Name="pressure_n" NumberOfComponents="1" format="ascii">
          119165 141694 108242 107292 138733 106266 137774 105092 136716 104067 135775 103127
          134929 102282 134188 101540 133552 100902 133019 100365 132579 99920.3 132220 99557
          131932 99264.6 131704 99032.2 131525 98849.6 131386 98707.7 131279 98598.5 131198 98515.1
          131137 98451.9 131091 98404.4 131056 98368.9 131031 98342.6 131012 98323.1 130998 98308.9
          130988 98298.5 130981 98291 130976 98285.6 130972 98281.9 130970 98279.4 130968 98277.8
          130968 98277 130967 98276.9 130968 98277.4 130969 98278.5 130971 98280.4 130974 98283.1
          130977 98286.9 130982 98291.8 130988 98298.3 130997 98306.6 131007 98317.2 131020 98330.4
          131036 98346.6 131056 98366.4 131079 98390 131107 98417.8 131138 98449.7 131186 98486
          131216 98593.7 131768 98559 125222 98521.1 96892.4 95702.3 94559.9 93472.3 92446.2 91506.8
          90662.4 89920.7 89282.3 88745.4 88300.5 87937.2 87644.7 87412.2 87229.6 87087.7 86978.4 86894.9
          86831.7 86784.2 86748.7 86722.3 86702.9 86688.6 86678.2 86670.7 86665.4 86661.6 86659.1 86657.5
          86656.7 86656.6 86657.1 86658.3 86660.2 86662.9 86666.6 86671.6 86678 86686.4 86696.9 86710.1
          86726.4 86746.1 86769.8 86797.5 86829.4 86865.7 86898.6 86947.3 87000.6 96841.5 95661.5 94517.5
          93429.4 92404.2 91465.9 90630.2 89888.9 89241.3 88705 88260.2 87897 87604.6 87372.2 87189.6
          87047.7 86938.4 86855 86791.8 86744.3 86708.8 86682.5 86663 86648.8 86638.4 86630.9 86625.5
          86621.8 86619.2 86617.7 86616.9 86616.8 86617.3 86618.4 86620.3 86623 86626.7 86631.7 86638.2
          86646.5 86657 86670.2 86686.5 86706.3 86729.9 86757.6 86789.6 86825.2 86859.6 86906.7 86967.8
        </DataArray>
        <DataArray type="Float32" Name="pressure_g" NumberOfComponents="1" format="ascii">
          120475 142968 109810 108674 140010 107609 139053 106438 137996 105412 137055 104472
          136210 103628 135469 102886 134834 102247 134302 101710 133862 101265 133503 100902
          133216 100609 132987 100377 132809 100194 132670 100052 132564 99942.7 132482 99859.3
          132421 99796.1 132375 99748.6 132341 99713.1 132315 99686.7 132296 99667.3 132283 99653
          132273 99642.6 132265 99635.1 132260 99629.8 132257 99626 132254 99623.5 132253 99621.9
          132252 99621.1 132252 99621 132252 99621.5 132254 99622.7 132255 99624.6 132258 99627.3
          132262 99631 132267 99636 132273 99642.4 132281 99650.8 132291 99661.3 132304 99674.5
          132320 99690.8 132340 99710.6 132364 99734.2 132391 99761.9 132422 99793.9 132470 99830.1
          132501 99937.3 133052 99913.4 126512 99947.2 109817 108627 107484 106397 105371 104431
          103587 102845 102207 101670 101225 100862 100569 100337 100154 100012 99902.9 99819.4
          99756.2 99708.7 99673.2 99646.9 99627.4 99613.1 99602.8 99595.3 99589.9 99586.2 99583.6 99582.1
          99581.3 99581.1 99581.7 99582.8 99584.7 99587.4 99591.1 99596.1 99602.6 99610.9 99621.4 99634.6
          99650.9 99670.7 99694.3 99722 99754 99790.2 99823.1 99871.9 99925.1 109766 108586 107442
          106354 105329 104390 103546 102804 102166 101630 101185 100821 100529 100297 100114
          99972.2 99863 99779.5 99716.4 99668.8 99633.3 99607 99587.5 99573.3 99562.9 99555.4 99550
          99546.3 99543.8 99542.2 99541.4 99541.3 99541.8 99543 99544.8 99547.5 99551.3 99556.2 99562.7
          99571 99581.6 99594.8 99611 99630.8 99654.4 99682.1 99714.1 99749.7 99784.2 99831.2 99892.3
        </DataArray>
        <DataArray type="Float32" Name="density_w" NumberOfComponents="1" format="ascii">
          999.721 999.734 999.715 999.714 999.732 999.714 999.732 999.713 999.731 999.713 999.731 999.712
          999.73 999.712 999.73 999.711 999.729 999.711 999.729 999.711 999.729 999.71 999.729 999.71
          999.729 999.71 999.728 999.71 999.728 999.71 999.728 999.71 999.728 999.71 999.728 999.71
          999.728 999.709 999.728 999.709 999.728 999.709 999.728 999.709 999.728 999.709 999.728 999.709
          999.728 999.709 999.728 999.709 999.728 999.709 999.728 999.709 999.728 999.709 999.728 999.709
          999.728 999.709 999.728 999.709 999.728 999.709 999.728 999.709 999.728 999.709 999.728 999.709
          999.728 999.709 999.728 999.709 999.728 999.709 999.728 999.709 999.728 999.709 999.728 999.709
          999.728 999.709 999.728 999.709 999.728 999.709 999.728 999.709 999.728 999.709 999.728 999.709
          999.728 999.71 999.728 999.71 999.725 999.71 999.71 999.709 999.708 999.708 999.707 999.707
          999.706 999.706 999.705 999.705 999.705 999.705 999.704 999.704 999.704 999.704 999.704 999.704
          999.704 999.704 999.704 999.704 999.704 999.704 999.704 999.704 999.704 999.704 999.704 999.704
          999.704 999.704 999.704 999.704 999.704 999.704 999.704 999.704 999.704 999.704 999.704 999.704
          999.704 999.704 999.704 999.704 999.704 999.704 999.704 999.704 999.704 999.71 999.709 999.708
          999.708 999.707 999.726 999.725 999.725 999.707 999.705 999.705 999.705 999.704 999.704 999.704
          999.704 999.704 999.704 999.704 999.704 999.704 999.704 999.704 999.704 999.704 999.704 999.704
          999.704 999.704 999.704 999.704 999.704 999.704 999.704 999.704 999.704 999.704 999.704 999.704
          999.704 999.704 999.704 999.704 999.704 999.704 999.704 999.704 999.704 999.704 999.704 999.704
        </DataArray>
        <DataArray type="Float32" Name="density_n" NumberOfComponents="1" format="ascii">
          878.771 878.771 878.771 878.771 878.771 878.771 878.771 878.771 878.771 878.771 878.771 878.771
          878.771 878.771 878.771 878.771 878.771 878.771 878.771 878.771 878.771 878.771 878.771 878.771
          878.771 878.771 878.771 878.771 878.771 878.771 878.771 878.771 878.771 878.771 878.771 878.771
          878.771 878.771 878.771 878.771 878.771 878.771 878.771 878.771 878.771 878.771 878.771 878.771
          878.771 878.771 878.771 878.771 878.771 878.771 878.771 878.771 878.771 878.771 878.771 878.771
          878.771 878.771 878.771 878.771 878.771 878.771 878.771 878.771 878.771 878.771 878.771 878.771
          878.771 878.771 878.771 878.771 878.771 878.771 878.771 878.771 878.771 878.771 878.771 878.771
          878.771 878.771 878.771 878.771 878.771 878.771 878.771 878.771 878.771 878.771 878.771 878.771
          878.771 878.771 878.771 878.771 878.771 878.771 878.771 878.771 878.771 878.771 878.771 878.771
          878.771 878.771 878.771 878.771 878.771 878.771 878.771 878.771 878.771 878.771 878.771 878.771
          878.771 878.771 878.771 878.771 878.771 878.771 878.771 878.771 878.771 878.771 878.771 878.771
          878.771 878.771 878.771 878.771 878.771 878.771 878.771 878.771 878.771 878.771 878.771 878.771
          878.771 878.771 878.771 878.771 878.771 878.771 878.771 878.771 878.771 878.771 878.771 878.771
          878.771 878.771 878.771 878.771 878.771 878.771 878.771 878.771 878.771 878.771 878.771 878.771
          878.771 878.771 878.771 878.771 878.771 878.771 878.771 878.771 878.771 878.771 878.771 878.771
          878.771 878.771 878.771 878.771 878.771 878.771 878.771 878.771 878.771 878.771 878.771 878.771
          878.771 878.771 878.771 878.771 878.771 878.771 878.771 878.771 878.771 878.771 878.771 878.771
        </DataArray>
        <DataArray type="Float32" Name="density_g" NumberOfComponents="1" format="ascii">
          1.47629 1.75298 1.34509 1.33112 1.71659 1.31802 1.70481 1.30361 1.69181 1.29099 1.68024 1.27943
          1.66984 1.26904 1.66073 1.25991 1.65292 1.25206 1.64637 1.24545 1.64096 1.23998 1.63655 1.23551
          1.63301 1.23191 1.6302 1.22905 1.628 1.2268 1.6263 1.22506 1.62499 1.22371 1.62399 1.22269
          1.62324 1.22191 1.62267 1.22133 1.62225 1.22089 1.62193 1.22056 1.6217 1.22033 1.62153 1.22015
          1.62141 1.22002 1.62132 1.21993 1.62126 1.21986 1.62121 1.21982 1.62118 1.21979 1.62117 1.21977
          1.62116 1.21976 1.62116 1.21976 1.62116 1.21976 1.62118 1.21978 1.6212 1.2198 1.62123 1.21983
          1.62128 1.21988 1.62133 1.21994 1.62141 1.22002 1.62151 1.22012 1.62164 1.22025 1.6218 1.22041
          1.622 1.22061 1.62224 1.22086 1.62253 1.22115 1.62287 1.22149 1.62325 1.22188 1.62384 1.22233
          1.62422 1.22365 1.631 1.22335 1.55055 1.22377 1.34518 1.33054 1.31648 1.30311 1.29048 1.27894
          1.26855 1.25943 1.25156 1.24496 1.23949 1.23502 1.23142 1.22856 1.22631 1.22457 1.22322 1.2222
          1.22142 1.22083 1.2204 1.22007 1.21983 1.21966 1.21953 1.21944 1.21937 1.21933 1.2193 1.21928
          1.21927 1.21927 1.21927 1.21929 1.21931 1.21934 1.21939 1.21945 1.21953 1.21963 1.21976 1.21992
          1.22012 1.22037 1.22066 1.221 1.22139 1.22184 1.22224 1.22284 1.2235 1.34455 1.33003 1.31596
          1.30258 1.28997 1.28278 1.27239 1.26327 1.25139 1.24448 1.23899 1.23452 1.23093 1.22807 1.22582
          1.22408 1.22273 1.22171 1.22093 1.22034 1.21991 1.21958 1.21934 1.21917 1.21904 1.21895 1.21888
          1.21884 1.21881 1.21879 1.21878 1.21878 1.21878 1.2188 1.21882 1.21885 1.2189 1.21896 1.21904
          1.21914 1.21927 1.21943 1.21963 1.21988 1.22017 1.22051 1.2209 1.22134 1.22176 1.22234 1.22309
        </DataArray>
        <DataArray type="Float32" Name="saturation_w" NumberOfComponents="1" format="ascii">
          0.974591 0.985121 0.882692 0.951321 0.984257 0.964072 0.984013 0.963251 0.983738 0.963422 0.98349 0.963488
          0.983264 0.963564 0.983064 0.963629 0.98289 0.963688 0.982743 0.963733 0.982621 0.963771 0.982521 0.963803
          0.98244 0.963828 0.982376 0.963848 0.982325 0.963863 0.982286 0.963875 0.982256 0.963885 0.982233 0.963892
          0.982215 0.963897 0.982202 0.963901 0.982192 0.963904 0.982185 0.963906 0.98218 0.963908 0.982176 0.963909
          0.982173 0.96391 0.982171 0.963911 0.982169 0.963911 0.982168 0.963911 0.982168 0.963912 0.982167 0.963912
          0.982167 0.963912 0.982167 0.963912 0.982167 0.963912 0.982167 0.963912 0.982168 0.963912 0.982169 0.963911
          0.98217 0.963911 0.982171 0.963911 0.982173 0.96391 0.982175 0.963909 0.982178 0.963908 0.982182 0.963907
          0.982187 0.963906 0.982192 0.963904 0.982199 0.963902 0.982207 0.963899 0.982216 0.963901 0.982229 0.963901
          0.982239 0.964082 0.982432 0.960645 0.980695 0.936354 0.11999 0.12 0.12 0.12 0.12 0.12
          0.12 0.12 0.12 0.12 0.12 0.12 0.12 0.12 0.12 0.12 0.12 0.12
          0.12 0.12 0.12 0.12 0.12 0.12 0.12 0.12 0.12 0.12 0.12 0.12
          0.12 0.12 0.12 0.12 0.12 0.12 0.12 0.12 0.12 0.12 0.12 0.12
          0.12 0.12 0.12 0.12 0.12 0.12 0.12 0.12 0.119999 0.119992 0.12 0.12
          0.12 0.12 0.120001 0.120001 0.120001 0.12 0.12 0.12 0.12 0.12 0.12 0.12
          0.12 0.12 0.12 0.12 0.12 0.12 0.12 0.12 0.12 0.12 0.12 0.12
          0.12 0.12 0.12 0.12 0.12 0.12 0.12 0.12 0.12 0.12 0.12 0.12
          0.12 0.12 0.12 0.12 0.12 0.12 0.12 0.12 0.12 0.12 0.12 0.119999
        </DataArray>
        <DataArray type="Float32" Name="saturation_n" NumberOfComponents="1" format="ascii">
          0 0 0 0 0 0 0 0 0 0 0 0
          0 0 0 0 0 0 0 0 0 0 0 0
          0 0 0 0 0 0 0 0 0 0 0 0
          0 0 0 0 0 0 0 0 0 0 0 0
          0 0 0 0 0 0 0 0 0 0 0 0
          0 0 0 0 0 0 0 0 0 0 0 0
          0 0 0 0 0 0 0 0 0 0 0 0
          0 0 0 0 0 0 0 0 0 0 0 0
          0 0 0 0 0 0 0 0 0 0 0 0
          0 0 0 0 0 0 0 0 0 0 0 0
          0 0 0 0 0 0 0 0 0 0 0 0
          0 0 0 0 0 0 0 0 0 0 0 0
          0 0 0 0 0 0 0 0 0 0 0 0
          0 0 0.000604636 0.00122061 0.00122057 0 0 0 0 0 0 0
          0 0 0 0 0 0 0 0 0 0 0 0
          0 0 0 0 0 0 0 0 0 0 0 0
          0 0 0 0 0 0 0 0 0 0 0 0
        </DataArray>
        <DataArray type="Float32" Name="saturation_g" NumberOfComponents="1" format="ascii">
          0.0254085 0.0148789 0.117308 0.0486795 0.015743 0.0359282 0.0159867 0.0367489 0.0162619 0.0365783 0.0165099 0.0365119
          0.0167359 0.036436 0.0169362 0.0363712 0.0171097 0.0363116 0.0172566 0.0362667 0.0173789 0.0362287 0.017479 0.0361974
          0.0175598 0.0361723 0.0176241 0.0361524 0.0176746 0.0361368 0.0177139 0.0361247 0.0177442 0.0361154 0.0177673 0.0361083
          0.0177847 0.0361029 0.0177978 0.0360989 0.0178076 0.0360959 0.0178149 0.0360937 0.0178203 0.0360921 0.0178242 0.0360909
          0.017827 0.03609 0.0178291 0.0360894 0.0178306 0.0360889 0.0178316 0.0360886 0.0178323 0.0360884 0.0178327 0.0360883
          0.0178329 0.0360882 0.017833 0.0360882 0.0178328 0.0360882 0.0178325 0.0360883 0.017832 0.0360885 0.0178312 0.0360887
          0.0178302 0.036089 0.0178288 0.0360895 0.017827 0.03609 0.0178247 0.0360907 0.0178217 0.0360916 0.017818 0.0360928
          0.0178134 0.0360942 0.0178078 0.0360959 0.0178011 0.036098 0.0177932 0.0361008 0.0177844 0.0360989 0.0177705 0.0360993
          0.0177613 0.0359179 0.0175684 0.0393553 0.019305 0.0636457 0.88001 0.88 0.88 0.88 0.88 0.88
          0.88 0.88 0.88 0.88 0.88 0.88 0.88 0.88 0.88 0.88 0.88 0.88
          0.88 0.88 0.88 0.88 0.88 0.88 0.88 0.88 0.88 0.88 0.88 0.88
          0.88 0.88 0.88 0.88 0.88 0.88 0.88 0.88 0.88 0.88 0.88 0.88
          0.88 0.88 0.88 0.88 0.88 0.88 0.88 0.88 0.880001 0.880008 0.88 0.88
          0.88 0.88 0.879395 0.878779 0.878779 0.88 0.88 0.88 0.88 0.88 0.88 0.88
          0.88 0.88 0.88 0.88 0.88 0.88 0.88 0.88 0.88 0.88 0.88 0.88
          0.88 0.88 0.88 0.88 0.88 0.88 0.88 0.88 0.88 0.88 0.88 0.88
          0.88 0.88 0.88 0.88 0.88 0.88 0.88 0.88 0.88 0.88 0.88 0.880001
        </DataArray>
        <DataArray type="Float32" Name="relativePerm_w" NumberOfComponents="1" format="ascii">
          0.822175 0.879725 0.497443 0.717952 0.874619 0.772074 0.873193 0.768397 0.871592 0.769159 0.870155 0.769456
          0.868851 0.769795 0.8677 0.770086 0.866706 0.770352 0.865867 0.770554 0.86517 0.770724 0.864601 0.770865
          0.864142 0.770977 0.863777 0.771067 0.863491 0.771137 0.863268 0.771191 0.863097 0.771233 0.862967 0.771265
          0.862868 0.771289 0.862794 0.771307 0.862738 0.77132 0.862697 0.77133 0.862667 0.771338 0.862645 0.771343
          0.862629 0.771347 0.862617 0.77135 0.862609 0.771352 0.862603 0.771353 0.862599 0.771354 0.862597 0.771355
          0.862595 0.771355 0.862595 0.771355 0.862596 0.771355 0.862598 0.771355 0.862601 0.771354 0.862605 0.771353
          0.862611 0.771351 0.862619 0.771349 0.862629 0.771347 0.862642 0.771344 0.862659 0.77134 0.86268 0.771335
          0.862706 0.771328 0.862737 0.77132 0.862775 0.771311 0.86282 0.771298 0.86287 0.771307 0.862948 0.771305
          0.863 0.772121 0.864093 0.756908 0.854379 0.661194 0 9.82379e-22 1.02785e-21 7.67873e-22 5.09108e-22 3.15103e-22
          1.76458e-22 9.13341e-23 4.22135e-23 1.83071e-23 7.13177e-24 2.40985e-24 6.60668e-25 1.25938e-25 1.02567e-26 8.7883e-31 0 0
          0 0 0 0 0 0 0 0 0 0 0 0
          0 0 0 0 0 0 0 0 0 0 0 0
          0 0 0 0 0 0 0 0 0 0 1.00407e-21 1.00066e-21
          7.50822e-22 4.9551e-22 1.37018e-20 1.26581e-20 1.08059e-20 1.0231e-22 1.78798e-23 6.39899e-24 2.05904e-24 5.1933e-25 8.28506e-26 3.72009e-27
          0 0 0 0 0 0 0 0 0 0 0 0
          0 0 0 0 0 0 0 0 0 0 0 0
          0 0 0 0 0 0 0 0 0 0 0 0
        </DataArray>
        <DataArray type="Float32" Name="relativePerm_n" NumberOfComponents="1" format="ascii">
          0 0 0 0 0 0 0 0 0 0 0 0
          0 0 0 0 0 0 0 0 0 0 0 0
          0 0 0 0 0 0 0 0 0 0 0 0
          0 0 0 0 0 0 0 0 0 0 0 0
          0 0 0 0 0 0 0 0 0 0 0 0
          0 0 0 0 0 0 0 0 0 0 0 0
          0 0 0 0 0 0 0 0 0 0 0 0
          0 0 0 0 0 0 0 0 0 0 0 0
          0 0 0 0 0 0 0 0 0 0 0 0
          0 0 0 0 0 0 0 0 0 0 0 0
          0 0 0 0 0 0 0 0 0 0 0 0
          0 0 0 0 0 0 0 0 0 0 0 0
          0 0 0 0 0 0 0 0 0 0 0 0
          0 0 5.43248e-11 5.01872e-10 5.01792e-10 0 0 0 0 0 0 0
          0 0 0 0 0 0 0 0 0 0 0 0
          0 0 0 0 0 0 0 0 0 0 0 0
          0 0 0 0 0 0 0 0 0 0 0 0
        </DataArray>
        <DataArray type="Float32" Name="relativePerm_g" NumberOfComponents="1" format="ascii">
          0 0 0.03103 0.00168213 0 0.000306939 0 0.000364121 0 0.000351921 0 0.000347213
          0 0.000341867 0 0.00033733 0 0.000333179 0 0.000330062 0 0.000327432 0 0.000325276
          0 0.000323548 0 0.00032218 0 0.000321109 0 0.00032028 0 0.000319643 0 0.000319158
          0 0.000318792 0 0.000318517 0 0.000318312 0 0.000318161 0 0.000318049 0 0.000317967
          0 0.000317908 0 0.000317865 0 0.000317834 0 0.000317813 0 0.000317798 0 0.00031779
          0 0.000317785 0 0.000317784 0 0.000317787 0 0.000317794 0 0.000317805 0 0.000317821
          0 0.000317843 0 0.000317872 0 0.00031791 0 0.000317958 0 0.000318021 0 0.000318099
          0 0.000318195 0 0.000318313 0 0.000318452 0 0.000318647 0 0.000318519 0 0.000318545
          0 0.000306244 0 0.000571919 0 0.0049332 0.907726 0.907714 0.907714 0.907714 0.907714 0.907714
          0.907714 0.907714 0.907714 0.907714 0.907714 0.907714 0.907714 0.907714 0.907714 0.907714 0.907714 0.907714
          0.907714 0.907714 0.907714 0.907714 0.907714 0.907714 0.907714 0.907714 0.907714 0.907714 0.907714 0.907714
          0.907714 0.907714 0.907714 0.907714 0.907714 0.907714 0.907714 0.907714 0.907714 0.907714 0.907714 0.907714
          0.907714 0.907714 0.907714 0.907714 0.907714 0.907714 0.907714 0.907714 0.907714 0.907724 0.907714 0.907714
          0.907714 0.907714 0.90697 0.906212 0.906212 0.907714 0.907714 0.907714 0.907714 0.907714 0.907714 0.907714
          0.907714 0.907714 0.907714 0.907714 0.907714 0.907714 0.907714 0.907714 0.907714 0.907714 0.907714 0.907714
          0.907714 0.907714 0.907714 0.907714 0.907714 0.907714 0.907714 0.907714 0.907714 0.907714 0.907714 0.907714
          0.907714 0.907714 0.907714 0.907714 0.907714 0.907714 0.907714 0.907714 0.907714 0.907714 0.907714 0.907715
        </DataArray>
        <DataArray type="Float32" Name="porosity" NumberOfComponents="1" format="ascii">
          0.4 0.4 0.4 0.4 0.4 0.4 0.4 0.4 0.4 0.4 0.4 0.4
          0.4 0.4 0.4 0.4 0.4 0.4 0.4 0.4 0.4 0.4 0.4 0.4
          0.4 0.4 0.4 0.4 0.4 0.4 0.4 0.4 0.4 0.4 0.4 0.4
          0.4 0.4 0.4 0.4 0.4 0.4 0.4 0.4 0.4 0.4 0.4 0.4
          0.4 0.4 0.4 0.4 0.4 0.4 0.4 0.4 0.4 0.4 0.4 0.4
          0.4 0.4 0.4 0.4 0.4 0.4 0.4 0.4 0.4 0.4 0.4 0.4
          0.4 0.4 0.4 0.4 0.4 0.4 0.4 0.4 0.4 0.4 0.4 0.4
          0.4 0.4 0.4 0.4 0.4 0.4 0.4 0.4 0.4 0.4 0.4 0.4
          0.4 0.4 0.4 0.4 0.4 0.4 0.4 0.4 0.4 0.4 0.4 0.4
          0.4 0.4 0.4 0.4 0.4 0.4 0.4 0.4 0.4 0.4 0.4 0.4
          0.4 0.4 0.4 0.4 0.4 0.4 0.4 0.4 0.4 0.4 0.4 0.4
          0.4 0.4 0.4 0.4 0.4 0.4 0.4 0.4 0.4 0.4 0.4 0.4
          0.4 0.4 0.4 0.4 0.4 0.4 0.4 0.4 0.4 0.4 0.4 0.4
          0.4 0.4 0.4 0.4 0.4 0.4 0.4 0.4 0.4 0.4 0.4 0.4
          0.4 0.4 0.4 0.4 0.4 0.4 0.4 0.4 0.4 0.4 0.4 0.4
          0.4 0.4 0.4 0.4 0.4 0.4 0.4 0.4 0.4 0.4 0.4 0.4
          0.4 0.4 0.4 0.4 0.4 0.4 0.4 0.4 0.4 0.4 0.4 0.4
        </DataArray>
        <DataArray type="Float32" Name="moleFrac_w^H2O" NumberOfComponents="1" format="ascii">
          0.999982 0.999979 0.999984 0.999984 0.999979 0.999984 0.999979 0.999984 0.999979 0.999984 0.999979 0.999984
          0.99998 0.999985 0.99998 0.999985 0.99998 0.999985 0.99998 0.999985 0.99998 0.999985 0.99998 0.999985
          0.99998 0.999985 0.99998 0.999985 0.99998 0.999985 0.99998 0.999985 0.99998 0.999985 0.99998 0.999985
          0.99998 0.999985 0.99998 0.999985 0.99998 0.999985 0.99998 0.999985 0.99998 0.999985 0.99998 0.999985
          0.99998 0.999985 0.99998 0.999985 0.99998 0.999985 0.99998 0.999985 0.99998 0.999985 0.99998 0.999985
          0.99998 0.999985 0.99998 0.999985 0.99998 0.999985 0.99998 0.999985 0.99998 0.999985 0.99998 0.999985
          0.99998 0.999985 0.99998 0.999985 0.99998 0.999985 0.99998 0.999985 0.99998 0.999985 0.99998 0.999985
          0.99998 0.999985 0.99998 0.999985 0.99998 0.999985 0.99998 0.999985 0.99998 0.999985 0.99998 0.999985
          0.99998 0.999985 0.99998 0.999985 0.999981 0.999985 0.999984 0.999984 0.999984 0.999984 0.999984 0.999984
          0.999985 0.999985 0.999985 0.999985 0.999985 0.999985 0.999985 0.999985 0.999985 0.999985 0.999985 0.999985
          0.999985 0.999985 0.999985 0.999985 0.999985 0.999985 0.999985 0.999985 0.999985 0.999985 0.999985 0.999985
          0.999985 0.999985 0.999985 0.999985 0.999985 0.999985 0.999985 0.999985 0.999985 0.999985 0.999985 0.999985
          0.999985 0.999985 0.999985 0.999985 0.999985 0.999985 0.999985 0.999985 0.999985 0.999984 0.999984 0.999984
          0.999984 0.999984 0.999981 0.999981 0.999981 0.999984 0.999985 0.999985 0.999985 0.999985 0.999985 0.999985
          0.999985 0.999985 0.999985 0.999985 0.999985 0.999985 0.999985 0.999985 0.999985 0.999985 0.999985 0.999985
          0.999985 0.999985 0.999985 0.999985 0.999985 0.999985 0.999985 0.999985 0.999985 0.999985 0.999985 0.999985
          0.999985 0.999985 0.999985 0.999985 0.999985 0.999985 0.999985 0.999985 0.999985 0.999985 0.999985 0.999985
        </DataArray>
        <DataArray type="Float32" Name="moleFrac_w^mesitylene" NumberOfComponents="1" format="ascii">
          -1.2132e-18 -1.4397e-18 -1.4744e-18 -1.09437e-18 1.8799e-18 2.52849e-18 2.33379e-18 -1.42912e-18 3.70569e-18 2.74224e-16 4.12622e-14 1.09109e-11
          4.94177e-14 1.13695e-11 4.65654e-14 1.02345e-11 7.15107e-17 1.46291e-13 3.15568e-18 3.92998e-15 3.59467e-18 8.09001e-17 -1.79252e-18 0
          2.23583e-18 6.7543e-19 -1.3392e-18 2.35854e-18 3.1206e-18 3.0269e-18 -3.11734e-18 1.00754e-18 -1.77991e-18 -6.70957e-19 -1.33411e-18 6.70397e-19
          1.3335e-18 -1.67493e-18 0 -1.00448e-18 -1.77692e-18 3.34708e-19 3.109e-18 -3.34619e-19 4.4408e-19 -1.67277e-18 4.44034e-18 6.69012e-19
          2.664e-18 1.00341e-18 -2.66386e-18 0 1.77584e-18 -1.00328e-18 1.33184e-18 -1.67208e-18 4.88333e-18 -1.00322e-18 2.21967e-18 -3.34402e-19
          -1.77573e-18 6.68798e-19 3.10752e-18 6.68797e-19 2.6636e-18 1.0032e-18 -2.66362e-18 -1.00321e-18 2.21971e-18 -3.3441e-19 -1.77581e-18 1.00326e-18
          3.99567e-18 -1.0033e-18 3.99582e-18 -3.34449e-19 3.10801e-18 2.34129e-18 4.88432e-18 6.68997e-19 3.55251e-18 -3.0108e-18 5.32929e-18 -1.00373e-18
          1.33248e-18 -6.69266e-19 -3.10959e-18 3.34699e-19 1.77722e-18 -1.00434e-18 -1.7776e-18 1.67436e-18 1.77801e-18 6.69958e-19 3.55731e-18 -1.0053e-18
          -8.89532e-19 1.34184e-18 5.80601e-18 -2.68304e-18 -4.24663e-19 3.35494e-19 -1.10587e-18 0 -3.60793e-19 3.57143e-19 1.58577e-13 8.8748e-09
          9.03901e-09 8.50785e-09 6.11403e-10 2.52507e-11 6.91065e-13 1.34674e-14 1.93097e-16 4.04161e-18 3.02569e-18 -6.71423e-19 -3.35345e-19 6.70129e-19
          -6.69705e-19 1.00408e-18 3.34574e-19 6.68971e-19 2.00652e-18 -1.00312e-18 6.68675e-19 6.68624e-19 -1.00288e-18 2.00569e-18 -1.67137e-18 1.67134e-18
          2.67412e-18 6.68529e-19 -1.0028e-18 -3.3427e-19 -1.00283e-18 6.68571e-19 1.00289e-18 -1.00294e-18 1.00301e-18 1.67182e-18 1.3376e-18 1.33778e-18
          -1.67249e-18 6.69131e-19 -1.00393e-18 -1.00421e-18 -1.00453e-18 1.33987e-18 -1.00523e-18 6.70481e-19 -1.00626e-18 7.36905e-19 2.91593e-18 7.21302e-19
          3.56999e-19 5.72016e-11 3.4029e-06 3.40293e-06 3.40295e-06 2.56942e-07 1.02902e-08 2.73412e-10 5.20194e-12 7.30994e-14 7.6558e-16 5.71292e-18
          -2.34904e-18 -2.01126e-18 -6.69861e-19 1.00416e-18 -1.6728e-18 -6.6888e-19 -1.00305e-18 6.68572e-19 2.33967e-18 3.00783e-18 -1.33671e-18 2.33912e-18
          2.00489e-18 -6.68279e-19 3.00721e-18 2.00479e-18 6.68262e-19 2.0048e-18 1.00241e-18 2.339e-18 -1.00246e-18 -1.00249e-18 -1.33672e-18 1.00261e-18
          -1.00269e-18 -3.34266e-19 -1.33724e-18 2.00619e-18 1.00329e-18 1.00353e-18 2.34223e-18 3.34711e-19 1.00449e-18 1.33978e-18 -1.00531e-18 -6.70618e-19
        </DataArray>
        <DataArray type="Float32" Name="moleFrac_w^Air" NumberOfComponents="1" format="ascii">
          1.80538e-05 2.14592e-05 1.64391e-05 1.62672e-05 2.10114e-05 1.61059e-05 2.08664e-05 1.59286e-05 2.07064e-05 1.57733e-05 2.05639e-05 1.5631e-05
          2.0436e-05 1.55031e-05 2.03239e-05 1.53908e-05 2.02278e-05 1.52941e-05 2.01471e-05 1.52128e-05 2.00805e-05 1.51454e-05 2.00262e-05 1.50904e-05
          1.99827e-05 1.50461e-05 1.99481e-05 1.50109e-05 1.99211e-05 1.49833e-05 1.99001e-05 1.49618e-05 1.9884e-05 1.49452e-05 1.98717e-05 1.49326e-05
          1.98624e-05 1.4923e-05 1.98554e-05 1.49158e-05 1.98502e-05 1.49105e-05 1.98464e-05 1.49065e-05 1.98435e-05 1.49035e-05 1.98414e-05 1.49014e-05
          1.98399e-05 1.48998e-05 1.98388e-05 1.48987e-05 1.98381e-05 1.48978e-05 1.98375e-05 1.48973e-05 1.98371e-05 1.48969e-05 1.98369e-05 1.48967e-05
          1.98368e-05 1.48965e-05 1.98368e-05 1.48965e-05 1.98369e-05 1.48966e-05 1.9837e-05 1.48968e-05 1.98373e-05 1.48971e-05 1.98377e-05 1.48975e-05
          1.98383e-05 1.4898e-05 1.9839e-05 1.48988e-05 1.984e-05 1.48998e-05 1.98412e-05 1.4901e-05 1.98428e-05 1.49026e-05 1.98447e-05 1.49046e-05
          1.98472e-05 1.49071e-05 1.98501e-05 1.49101e-05 1.98537e-05 1.49136e-05 1.98579e-05 1.49179e-05 1.98626e-05 1.49227e-05 1.98698e-05 1.49282e-05
          1.98744e-05 1.49444e-05 1.99579e-05 1.49408e-05 1.89677e-05 1.49459e-05 1.64402e-05 1.626e-05 1.6087e-05 1.59224e-05 1.5767e-05 1.56247e-05
          1.54969e-05 1.53846e-05 1.5288e-05 1.52067e-05 1.51394e-05 1.50843e-05 1.50401e-05 1.50049e-05 1.49772e-05 1.49557e-05 1.49392e-05 1.49266e-05
          1.4917e-05 1.49098e-05 1.49044e-05 1.49004e-05 1.48975e-05 1.48953e-05 1.48938e-05 1.48926e-05 1.48918e-05 1.48912e-05 1.48909e-05 1.48906e-05
          1.48905e-05 1.48905e-05 1.48906e-05 1.48907e-05 1.4891e-05 1.48914e-05 1.4892e-05 1.48927e-05 1.48937e-05 1.4895e-05 1.48966e-05 1.48986e-05
          1.4901e-05 1.4904e-05 1.49076e-05 1.49118e-05 1.49166e-05 1.49221e-05 1.49271e-05 1.49345e-05 1.49426e-05 1.64325e-05 1.62538e-05 1.60806e-05
          1.59158e-05 1.57607e-05 1.56015e-05 1.54737e-05 1.53614e-05 1.52805e-05 1.52005e-05 1.51333e-05 1.50783e-05 1.5034e-05 1.49988e-05 1.49712e-05
          1.49497e-05 1.49331e-05 1.49205e-05 1.4911e-05 1.49038e-05 1.48984e-05 1.48944e-05 1.48914e-05 1.48893e-05 1.48877e-05 1.48866e-05 1.48858e-05
          1.48852e-05 1.48848e-05 1.48846e-05 1.48845e-05 1.48844e-05 1.48845e-05 1.48847e-05 1.4885e-05 1.48854e-05 1.4886e-05 1.48867e-05 1.48877e-05
          1.48889e-05 1.48905e-05 1.48925e-05 1.4895e-05 1.4898e-05 1.49016e-05 1.49058e-05 1.49106e-05 1.4916e-05 1.49212e-05 1.49283e-05 1.49376e-05
        </DataArray>
        <DataArray type="Float32" Name="moleFrac_n^H2O" NumberOfComponents="1" format="ascii">
          1.09016e-05 1.09016e-05 1.09016e-05 1.09016e-05 1.09016e-05 1.09016e-05 1.09016e-05 1.09016e-05 1.09016e-05 1.09017e-05 1.09016e-05 1.09017e-05
          1.09016e-05 1.09017e-05 1.09016e-05 1.09017e-05 1.09016e-05 1.09017e-05 1.09016e-05 1.09017e-05 1.09016e-05 1.09017e-05 1.09016e-05 1.09017e-05
          1.09016e-05 1.09017e-05 1.09016e-05 1.09017e-05 1.09016e-05 1.09017e-05 1.09016e-05 1.09017e-05 1.09016e-05 1.09017e-05 1.09016e-05 1.09017e-05
          1.09016e-05 1.09017e-05 1.09016e-05 1.09017e-05 1.09016e-05 1.09017e-05 1.09016e-05 1.09017e-05 1.09016e-05 1.09017e-05 1.09016e-05 1.09017e-05
          1.09016e-05 1.09017e-05 1.09016e-05 1.09017e-05 1.09016e-05 1.09017e-05 1.09016e-05 1.09017e-05 1.09016e-05 1.09017e-05 1.09016e-05 1.09017e-05
          1.09016e-05 1.09017e-05 1.09016e-05 1.09017e-05 1.09016e-05 1.09017e-05 1.09016e-05 1.09017e-05 1.09016e-05 1.09017e-05 1.09016e-05 1.09017e-05
          1.09016e-05 1.09017e-05 1.09016e-05 1.09017e-05 1.09016e-05 1.09017e-05 1.09016e-05 1.09017e-05 1.09016e-05 1.09017e-05 1.09016e-05 1.09017e-05
          1.09016e-05 1.09017e-05 1.09016e-05 1.09017e-05 1.09016e-05 1.09017e-05 1.09016e-05 1.09017e-05 1.09016e-05 1.09017e-05 1.09016e-05 1.09017e-05