<?xml version="1.0"?>
<VTKFile type="UnstructuredGrid" version="0.1" byte_order="LittleEndian">
  <UnstructuredGrid>
    <Piece NumberOfCells="150" NumberOfPoints="204">
      <PointData Scalars="pressure_w">
        <DataArray type="Float32" Name="pressure_w" NumberOfComponents="1" format="ascii">
          96941.8 95888.6 96920.6 95843.8 94811.6 94768.6 93777.1 93734.4 92804.5 92762.2 91910 91868.2
          91104 91062.4 90392.5 90351.2 89776.9 89735.7 89254.4 89213.5 88818.1 88777.4 88459 88418.4
          88167.5 88127 87933.8 87893.4 87748.5 87708.2 87603 87562.8 87489.9 87449.8 87402.7 87362.6
          87335.9 87295.8 87285.1 87245 87246.8 87206.7 87217.9 87177.8 87196.3 87156.2 87180.2 87140.2
          87168.3 87128.3 87159.5 87119.5 87153 87113 87148.3 87108.2 87144.8 87104.7 87142.2 87102.2
          87140.4 87100.3 87139 87099 87138.1 87098 87137.4 87097.3 87136.9 87096.8 87136.5 87096.4
          87136.2 87096.2 87136 87096 87135.9 87095.8 87135.8 87095.8 87135.7 87095.7 87135.7 87095.6
          87135.7 87095.6 87135.6 87095.6 87135.6 87095.6 87135.6 87095.6 87135.6 87095.6 87135.6 87095.6
          87135.6 87095.6 87136.9 87095.7 87100.7 87081.4 96907.2 95800 94725.3 93691.7 92719.9 91826.5
          91020.8 90309.9 89694.4 89172.6 88736.7 88377.9 88086.6 87853 87667.9 87522.6 87409.6 87322.4
          87255.7 87204.9 87166.6 87137.7 87116.2 87100.1 87088.2 87079.4 87072.9 87068.2 87064.7 87062.1
          87060.3 87059 87058 87057.3 87056.8 87056.4 87056.1 87055.9 87055.8 87055.7 87055.6 87055.6
          87055.6 87055.5 87055.5 87055.5 87055.5 87055.5 87055.5 87055.4 87069.7 96886.7 95755.2 94682.4
          93649 92677.5 91785.3 90759.8 90049.2 89652.9 89131.8 88696 88337.3 88046.1 87812.7 87627.6
          87482.4 87369.4 87282.3 87215.6 87164.9 87126.5 87097.7 87076.1 87060.1 87048.2 87039.4 87032.9
          87028.1 87024.7 87022.1 87020.3 87018.9 87018 87017.2 87016.7 87016.4 87016.1 87015.9 87015.8
          87015.7 87015.6 87015.6 87015.5 87015.5 87015.5 87015.5 87015.5 87015.5 87015.6 87014.2 87050.6
        </DataArray>
        <DataArray type="Float32" Name="pressure_n" NumberOfComponents="1" format="ascii">
          96941.8 95888.6 96920.6 95843.8 94811.6 94768.6 93777.1 93734.4 92804.5 92762.2 91910 91868.2
          91104 91062.4 90392.5 90351.2 89776.9 89735.7 89254.4 89213.5 88818.1 88777.4 88459 88418.4
          88167.5 88127 87933.8 87893.4 87748.5 87708.2 87603 87562.8 87489.9 87449.8 87402.7 87362.6
          87335.9 87295.8 87285.1 87245 87246.8 87206.7 87217.9 87177.8 87196.3 87156.2 87180.2 87140.2
          87168.3 87128.3 87159.5 87119.5 87153 87113 87148.3 87108.2 87144.8 87104.7 87142.2 87102.2
          87140.4 87100.3 87139 87099 87138.1 87098 87137.4 87097.3 87136.9 87096.8 87136.5 87096.4
          87136.2 87096.2 87136 87096 87135.9 87095.8 87135.8 87095.8 87135.7 87095.7 87135.7 87095.6
          87135.7 87095.6 87135.6 87095.6 87135.6 87095.6 87135.6 87095.6 87135.6 87095.6 87135.6 87095.6
          87135.6 87095.6 87136.9 87095.7 87100.7 87081.4 96907.2 95800 94725.3 93691.7 92719.9 91826.5
          91020.8 90309.9 89694.4 89172.6 88736.7 88377.9 88086.6 87853 87667.9 87522.6 87409.6 87322.4
          87255.7 87204.9 87166.6 87137.7 87116.2 87100.1 87088.2 87079.4 87072.9 87068.2 87064.7 87062.1
          87060.3 87059 87058 87057.3 87056.8 87056.4 87056.1 87055.9 87055.8 87055.7 87055.6 87055.6
          87055.6 87055.5 87055.5 87055.5 87055.5 87055.5 87055.5 87055.4 87069.7 96886.7 95755.2 94682.4
          93649 92677.5 91785.3 90988.3 90277.7 89652.9 89131.8 88696 88337.3 88046.1 87812.7 87627.6
          87482.4 87369.4 87282.3 87215.6 87164.9 87126.5 87097.7 87076.1 87060.1 87048.2 87039.4 87032.9
          87028.1 87024.7 87022.1 87020.3 87018.9 87018 87017.2 87016.7 87016.4 87016.1 87015.9 87015.8
          87015.7 87015.6 87015.6 87015.5 87015.5 87015.5 87015.5 87015.5 87015.5 87015.6 87014.2 87050.6
        </DataArray>
        <DataArray type="Float32" Name="pressure_g" NumberOfComponents="1" format="ascii">
          109866 108813 109845 108768 107736 107693 106702 106659 105729 105687 104834 104793
          104028 103987 103317 103276 102701 102660 102179 102138 101743 101702 101384 101343
          101092 101052 100858 100818 100673 100633 100528 100487 100414 100374 100327 100287
          100260 100220 100210 100170 100171 100131 100142 100102 100121 100081 100105 100065
          100093 100053 100084 100044 100078 100038 100073 100033 100069 100029 100067 100027
          100065 100025 100064 100024 100063 100023 100062 100022 100061 100021 100061 100021
          100061 100021 100061 100021 100060 100020 100060 100020 100060 100020 100060 100020
          100060 100020 100060 100020 100060 100020 100060 100020 100060 100020 100060 100020
          100060 100020 100061 100020 100025 100006 109832 108724 107650 106616 105644 104751
          103945 103234 102619 102097 101661 101302 101011 100778 100592 100447 100334 100247
          100180 100129 100091 100062 100041 100025 100013 100004 99997.5 99992.7 99989.2 99986.7
          99984.8 99983.5 99982.5 99981.8 99981.3 99980.9 99980.7 99980.5 99980.3 99980.2 99980.2 99980.1
          99980.1 99980.1 99980.1 99980.1 99980.1 99980.1 99980 99979.9 99994.2 109811 108680 107607
          106573 105602 104710 103904 103193 102577 102056 101620 101262 100971 100737 100552
          100407 100294 100207 100140 100089 100051 100022 100001 99984.6 99972.7 99963.9 99957.4
          99952.7 99949.2 99946.6 99944.8 99943.5 99942.5 99941.8 99941.3 99940.9 99940.6 99940.4 99940.3
          99940.2 99940.1 99940.1 99940.1 99940 99940 99940 99940 99940 99940.1 99938.8 99975.1
        </DataArray>
        <DataArray type="Float32" Name="density_w" NumberOfComponents="1" format="ascii">
          999.71 999.709 999.71 999.709 999.708 999.708 999.708 999.708 999.707 999.707 999.707 999.707
          999.706 999.706 999.706 999.706 999.706 999.706 999.705 999.705 999.705 999.705 999.705 999.705
          999.705 999.705 999.705 999.705 999.704 999.704 999.704 999.704 999.704 999.704 999.704 999.704
          999.704 999.704 999.704 999.704 999.704 999.704 999.704 999.704 999.704 999.704 999.704 999.704
          999.704 999.704 999.704 999.704 999.704 999.704 999.704 999.704 999.704 999.704 999.704 999.704
          999.704 999.704 999.704 999.704 999.704 999.704 999.704 999.704 999.704 999.704 999.704 999.704
          999.704 999.704 999.704 999.704 999.704 999.704 999.704 999.704 999.704 999.704 999.704 999.704
          999.704 999.704 999.704 999.704 999.704 999.704 999.704 999.704 999.704 999.704 999.704 999.704
          999.704 999.704 999.704 999.704 999.704 999.704 999.71 999.709 999.708 999.708 999.707 999.707
          999.706 999.706 999.706 999.705 999.705 999.705 999.705 999.704 999.704 999.704 999.704 999.704
          999.704 999.704 999.704 999.704 999.704 999.704 999.704 999.704 999.704 999.704 999.704 999.704
          999.704 999.704 999.704 999.704 999.704 999.704 999.704 999.704 999.704 999.704 999.704 999.704
          999.704 999.704 999.704 999.704 999.704 999.704 999.704 999.704 999.704 999.71 999.709 999.708
          999.708 999.707 999.726 999.725 999.725 999.707 999.705 999.705 999.705 999.705 999.704 999.704
          999.704 999.704 999.704 999.704 999.704 999.704 999.704 999.704 999.704 999.704 999.704 999.704
          999.704 999.704 999.704 999.704 999.704 999.704 999.704 999.704 999.704 999.704 999.704 999.704
          999.704 999.704 999.704 999.704 999.704 999.704 999.704 999.704 999.704 999.704 999.704 999.704
        </DataArray>
        <DataArray type="Float32" Name="density_n" NumberOfComponents="1" format="ascii">
          878.771 878.771 878.771 878.771 878.771 878.771 878.771 878.771 878.771 878.771 878.771 878.771
          878.771 878.771 878.771 878.771 878.771 878.771 878.771 878.771 878.771 878.771 878.771 878.771
          878.771 878.771 878.771 878.771 878.771 878.771 878.771 878.771 878.771 878.771 878.771 878.771
          878.771 878.771 878.771 878.771 878.771 878.771 878.771 878.771 878.771 878.771 878.771 878.771
          878.771 878.771 878.771 878.771 878.771 878.771 878.771 878.771 878.771 878.771 878.771 878.771
          878.771 878.771 878.771 878.771 878.771 878.771 878.771 878.771 878.771 878.771 878.771 878.771
          878.771 878.771 878.771 878.771 878.771 878.771 878.771 878.771 878.771 878.771 878.771 878.771
          878.771 878.771 878.771 878.771 878.771 878.771 878.771 878.771 878.771 878.771 878.771 878.771
          878.771 878.771 878.771 878.771 878.771 878.771 878.771 878.771 878.771 878.771 878.771 878.771
          878.771 878.771 878.771 878.771 878.771 878.771 878.771 878.771 878.771 878.771 878.771 878.771
          878.771 878.771 878.771 878.771 878.771 878.771 878.771 878.771 878.771 878.771 878.771 878.771
          878.771 878.771 878.771 878.771 878.771 878.771 878.771 878.771 878.771 878.771 878.771 878.771
          878.771 878.771 878.771 878.771 878.771 878.771 878.771 878.771 878.771 878.771 878.771 878.771
          878.771 878.771 878.771 878.771 878.771 878.771 878.771 878.771 878.771 878.771 878.771 878.771
          878.771 878.771 878.771 878.771 878.771 878.771 878.771 878.771 878.771 878.771 878.771 878.771
          878.771 878.771 878.771 878.771 878.771 878.771 878.771 878.771 878.771 878.771 878.771 878.771
          878.771 878.771 878.771 878.771 878.771 878.771 878.771 878.771 878.771 878.771 878.771 878.771
        </DataArray>
        <DataArray type="Float32" Name="density_g" NumberOfComponents="1" format="ascii">
          1.34579 1.33283 1.34553 1.33228 1.31958 1.31905 1.30686 1.30633 1.29489 1.29437 1.28389 1.28337
          1.27397 1.27346 1.26522 1.26471 1.25765 1.25714 1.25122 1.25072 1.24585 1.24535 1.24144 1.24094
          1.23785 1.23735 1.23498 1.23448 1.2327 1.2322 1.23091 1.23041 1.22952 1.22902 1.22844 1.22795
          1.22762 1.22713 1.227 1.2265 1.22653 1.22603 1.22617 1.22568 1.2259 1.22541 1.22571 1.22521
          1.22556 1.22507 1.22545 1.22496 1.22537 1.22488 1.22531 1.22482 1.22527 1.22478 1.22524 1.22475
          1.22522 1.22472 1.2252 1.22471 1.22519 1.2247 1.22518 1.22469 1.22517 1.22468 1.22517 1.22468
          1.22517 1.22467 1.22516 1.22467 1.22516 1.22467 1.22516 1.22467 1.22516 1.22467 1.22516 1.22467
          1.22516 1.22467 1.22516 1.22467 1.22516 1.22467 1.22516 1.22467 1.22516 1.22467 1.22516 1.22467
          1.22516 1.22467 1.22517 1.22467 1.22473 1.22449 1.34536 1.33174 1.31852 1.3058 1.29385 1.28286
          1.27295 1.26421 1.25663 1.25021 1.24485 1.24044 1.23686 1.23398 1.23171 1.22992 1.22853 1.22746
          1.22663 1.22601 1.22554 1.22518 1.22492 1.22472 1.22457 1.22447 1.22439 1.22433 1.22429 1.22425
          1.22423 1.22421 1.2242 1.22419 1.22419 1.22418 1.22418 1.22418 1.22418 1.22417 1.22417 1.22417
          1.22417 1.22417 1.22417 1.22417 1.22417 1.22417 1.22417 1.22417 1.22435 1.34511 1.33119 1.31799
          1.30528 1.29333 1.2867 1.27679 1.26805 1.25645 1.24973 1.24435 1.23994 1.23636 1.23349 1.23121
          1.22942 1.22803 1.22696 1.22614 1.22552 1.22505 1.22469 1.22443 1.22423 1.22408 1.22397 1.22389
          1.22384 1.22379 1.22376 1.22374 1.22372 1.22371 1.2237 1.2237 1.22369 1.22369 1.22369 1.22368
          1.22368 1.22368 1.22368 1.22368 1.22368 1.22368 1.22368 1.22368 1.22368 1.22368 1.22366 1.22411
        </DataArray>
        <DataArray type="Float32" Name="saturation_w" NumberOfComponents="1" format="ascii">
          0.119993 0.12 0.119992 0.12 0.12 0.12 0.12 0.12 0.12 0.12 0.12 0.12
          0.12 0.12 0.12 0.12 0.12 0.12 0.12 0.12 0.12 0.12 0.12 0.12
          0.12 0.12 0.12 0.12 0.12 0.12 0.12 0.12 0.12 0.12 0.12 0.12
          0.12 0.12 0.12 0.12 0.12 0.12 0.12 0.12 0.12 0.12 0.12 0.12
          0.12 0.12 0.12 0.12 0.12 0.12 0.12 0.12 0.12 0.12 0.12 0.12
          0.12 0.12 0.12 0.12 0.12 0.12 0.12 0.12 0.12 0.12 0.12 0.12
          0.12 0.12 0.12 0.12 0.12 0.12 0.12 0.12 0.12 0.12 0.12 0.12
          0.12 0.12 0.12 0.12 0.12 0.12 0.12 0.12 0.12 0.12 0.12 0.12
          0.12 0.12 0.12 0.12 0.12 0.12 0.119992 0.12 0.12 0.12 0.12 0.12
          0.12 0.12 0.12 0.12 0.12 0.12 0.12 0.12 0.12 0.12 0.12 0.12
          0.12 0.12 0.12 0.12 0.12 0.12 0.12 0.12 0.12 0.12 0.12 0.12
          0.12 0.12 0.12 0.12 0.12 0.12 0.12 0.12 0.12 0.12 0.12 0.12
          0.12 0.12 0.12 0.12 0.12 0.12 0.12 0.12 0.12 0.119991 0.12 0.12
          0.12 0.12 0.120001 0.120001 0.120001 0.12 0.12 0.12 0.12 0.12 0.12 0.12
          0.12 0.12 0.12 0.12 0.12 0.12 0.12 0.12 0.12 0.12 0.12 0.12
          0.12 0.12 0.12 0.12 0.12 0.12 0.12 0.12 0.12 0.12 0.12 0.12
          0.12 0.12 0.12 0.12 0.12 0.12 0.12 0.12 0.12 0.12 0.12 0.119999
        </DataArray>
        <DataArray type="Float32" Name="saturation_n" NumberOfComponents="1" format="ascii">
          0 0 0 0 0 0 0 0 0 0 0 0
          0 0 0 0 0 0 0 0 0 0 0 0
          0 0 0 0 0 0 0 0 0 0 0 0
          0 0 0 0 0 0 0 0 0 0 0 0
          0 0 0 0 0 0 0 0 0 0 0 0
          0 0 0 0 0 0 0 0 0 0 0 0
          0 0 0 0 0 0 0 0 0 0 0 0
          0 0 0 0 0 0 0 0 0 0 0 0
          0 0 0 0 0 0 0 0 0 0 0 0
          0 0 0 0 0 0 0 0 0 0 0 0
          0 0 0 0 0 0 0 0 0 0 0 0
          0 0 0 0 0 0 0 0 0 0 0 0
          0 0 0 0 0 0 0 0 0 0 0 0
          0 0 0.000604704 0.00122063 0.00122059 0 0 0 0 0 0 0
          0 0 0 0 0 0 0 0 0 0 0 0
          0 0 0 0 0 0 0 0 0 0 0 0
          0 0 0 0 0 0 0 0 0 0 0 0
        </DataArray>
        <DataArray type="Float32" Name="saturation_g" NumberOfComponents="1" format="ascii">
          0.880007 0.88 0.880008 0.88 0.88 0.88 0.88 0.88 0.88 0.88 0.88 0.88
          0.88 0.88 0.88 0.88 0.88 0.88 0.88 0.88 0.88 0.88 0.88 0.88
          0.88 0.88 0.88 0.88 0.88 0.88 0.88 0.88 0.88 0.88 0.88 0.88
          0.88 0.88 0.88 0.88 0.88 0.88 0.88 0.88 0.88 0.88 0.88 0.88
          0.88 0.88 0.88 0.88 0.88 0.88 0.88 0.88 0.88 0.88 0.88 0.88
          0.88 0.88 0.88 0.88 0.88 0.88 0.88 0.88 0.88 0.88 0.88 0.88
          0.88 0.88 0.88 0.88 0.88 0.88 0.88 0.88 0.88 0.88 0.88 0.88
          0.88 0.88 0.88 0.88 0.88 0.88 0.88 0.88 0.88 0.88 0.88 0.88
          0.88 0.88 0.88 0.88 0.88 0.88 0.880008 0.88 0.88 0.88 0.88 0.88
          0.88 0.88 0.88 0.88 0.88 0.88 0.88 0.88 0.88 0.88 0.88 0.88
          0.88 0.88 0.88 0.88 0.88 0.88 0.88 0.88 0.88 0.88 0.88 0.88
          0.88 0.88 0.88 0.88 0.88 0.88 0.88 0.88 0.88 0.88 0.88 0.88
          0.88 0.88 0.88 0.88 0.88 0.88 0.88 0.88 0.88 0.880009 0.88 0.88
          0.88 0.88 0.879395 0.878779 0.878779 0.88 0.88 0.88 0.88 0.88 0.88 0.88
          0.88 0.88 0.88 0.88 0.88 0.88 0.88 0.88 0.88 0.88 0.88 0.88
          0.88 0.88 0.88 0.88 0.88 0.88 0.88 0.88 0.88 0.88 0.88 0.88
          0.88 0.88 0.88 0.88 0.88 0.88 0.88 0.88 0.88 0.88 0.88 0.880001
        </DataArray>
        <DataArray type="Float32" Name="relativePerm_w" NumberOfComponents="1" format="ascii">
          0 1.30195e-21 0 1.25358e-21 1.24249e-21 1.21925e-21 9.51422e-22 9.3073e-22 6.5848e-22 6.42279e-22 4.24907e-22 4.12845e-22
          2.58415e-22 2.49736e-22 1.49339e-22 1.43346e-22 8.24722e-23 7.84572e-23 4.37962e-23 4.11949e-23 2.24547e-23 2.0809e-23 1.11713e-23 1.01538e-23
          5.42329e-24 4.80623e-24 2.58466e-24 2.21628e-24 1.21735e-24 9.99997e-25 5.70862e-25 4.43558e-25 2.6877e-25 1.94387e-25 1.28237e-25 8.46409e-26
          6.26449e-26 3.6852e-26 3.16744e-26 1.61619e-26 1.67565e-26 7.20012e-27 9.36773e-27 3.28978e-27 5.57773e-27 1.55798e-27 3.5546e-27 7.73259e-28
          2.42728e-27 4.06488e-28 1.77168e-27 2.28352e-28 1.3746e-27 1.37957e-28 1.12515e-27 8.9844e-29 9.63566e-28 6.29679e-29 8.56112e-28 4.72399e-29
          7.83238e-28 3.76462e-29 7.3301e-28 3.15685e-29 6.97975e-28 2.76086e-29 6.73368e-28 2.4967e-29 6.55967e-28 2.31653e-29 6.43614e-28 2.19306e-29
          6.34855e-28 2.10657e-29 6.28585e-28 2.04635e-29 6.24159e-28 2.00389e-29 6.20984e-28 1.97392e-29 6.18827e-28 1.95393e-29 6.17315e-28 1.93948e-29
          6.16294e-28 1.93025e-29 6.1566e-28 1.92378e-29 6.15273e-28 1.92049e-29 6.15126e-28 1.91859e-29 6.15119e-28 1.91918e-29 6.15563e-28 1.91788e-29
          6.13372e-28 1.92635e-29 6.85732e-28 2.14466e-29 4.76046e-29 6.47291e-31 0 1.19841e-21 1.1955e-21 9.10529e-22 6.26356e-22 4.03877e-22
          2.42847e-22 1.38477e-22 7.45986e-23 3.87032e-23 1.9247e-23 9.20091e-24 4.23864e-24 1.88532e-24 8.10687e-25 3.37114e-25 1.35446e-25 5.24416e-26
          1.94657e-26 6.86482e-27 2.26511e-27 6.80878e-28 1.77557e-28 3.63192e-29 4.4967e-30 1.09742e-31 0 0 0 0
          0 0 0 0 0 0 0 0 0 0 0 0
          0 0 0 0 0 0 0 0 0 0 1.15043e-21 1.17295e-21
          8.90413e-22 6.10664e-22 1.48719e-20 1.3857e-20 1.19618e-20 1.56734e-22 3.79552e-23 1.77916e-23 8.31044e-24 3.71814e-24 1.58957e-24 6.47329e-25
          2.49542e-25 9.00396e-26 2.98102e-26 8.7359e-27 2.11208e-27 3.58557e-28 2.55958e-29 2.19381e-34 0 0 0 0
          0 0 0 0 0 0 0 0 0 0 0 0
          0 0 0 0 0 0 0 0 0 0 0 0
        </DataArray>
        <DataArray type="Float32" Name="relativePerm_n" NumberOfComponents="1" format="ascii">
          0 0 0 0 0 0 0 0 0 0 0 0
          0 0 0 0 0 0 0 0 0 0 0 0
          0 0 0 0 0 0 0 0 0 0 0 0
          0 0 0 0 0 0 0 0 0 0 0 0
          0 0 0 0 0 0 0 0 0 0 0 0
          0 0 0 0 0 0 0 0 0 0 0 0
          0 0 0 0 0 0 0 0 0 0 0 0
          0 0 0 0 0 0 0 0 0 0 0 0
          0 0 0 0 0 0 0 0 0 0 0 0
          0 0 0 0 0 0 0 0 0 0 0 0
          0 0 0 0 0 0 0 0 0 0 0 0
          0 0 0 0 0 0 0 0 0 0 0 0
          0 0 0 0 0 0 0 0 0 0 0 0
          0 0 5.43473e-11 5.01917e-10 5.0184e-10 0 0 0 0 0 0 0
          0 0 0 0 0 0 0 0 0 0 0 0
          0 0 0 0 0 0 0 0 0 0 0 0
          0 0 0 0 0 0 0 0 0 0 0 0
        </DataArray>
        <DataArray type="Float32" Name="relativePerm_g" NumberOfComponents="1" format="ascii">
          0.907723 0.907713 0.907723 0.907713 0.907713 0.907713 0.907714 0.907714 0.907714 0.907714 0.907714 0.907714
          0.907714 0.907714 0.907714 0.907714 0.907714 0.907714 0.907714 0.907714 0.907714 0.907714 0.907714 0.907714
          0.907714 0.907714 0.907714 0.907714 0.907714 0.907714 0.907714 0.907714 0.907714 0.907714 0.907714 0.907714
          0.907714 0.907714 0.907714 0.907714 0.907714 0.907714 0.907714 0.907714 0.907714 0.907714 0.907714 0.907714
          0.907714 0.907714 0.907714 0.907714 0.907714 0.907714 0.907714 0.907714 0.907714 0.907714 0.907714 0.907714
          0.907714 0.907714 0.907714 0.907714 0.907714 0.907714 0.907714 0.907714 0.907714 0.907714 0.907714 0.907714
          0.907714 0.907714 0.907714 0.907714 0.907714 0.907714 0.907714 0.907714 0.907714 0.907714 0.907714 0.907714
          0.907714 0.907714 0.907714 0.907714 0.907714 0.907714 0.907714 0.907714 0.907714 0.907714 0.907714 0.907714
          0.907714 0.907714 0.907714 0.907714 0.907714 0.907714 0.907724 0.907713 0.907713 0.907714 0.907714 0.907714
          0.907714 0.907714 0.907714 0.907714 0.907714 0.907714 0.907714 0.907714 0.907714 0.907714 0.907714 0.907714
          0.907714 0.907714 0.907714 0.907714 0.907714 0.907714 0.907714 0.907714 0.907714 0.907714 0.907714 0.907714
          0.907714 0.907714 0.907714 0.907714 0.907714 0.907714 0.907714 0.907714 0.907714 0.907714 0.907714 0.907714
          0.907714 0.907714 0.907714 0.907714 0.907714 0.907714 0.907714 0.907714 0.907714 0.907725 0.907713 0.907713
          0.907714 0.907714 0.90697 0.906212 0.906212 0.907714 0.907714 0.907714 0.907714 0.907714 0.907714 0.907714
          0.907714 0.907714 0.907714 0.907714 0.907714 0.907714 0.907714 0.907714 0.907714 0.907714 0.907714 0.907714
          0.907714 0.907714 0.907714 0.907714 0.907714 0.907714 0.907714 0.907714 0.907714 0.907714 0.907714 0.907714
          0.907714 0.907714 0.907714 0.907714 0.907714 0.907714 0.907714 0.907714 0.907714 0.907714 0.907714 0.907715
        </DataArray>
        <DataArray type="Float32" Name="porosity" NumberOfComponents="1" format="ascii">
          0.4 0.4 0.4 0.4 0.4 0.4 0.4 0.4 0.4 0.4 0.4 0.4
          0.4 0.4 0.4 0.4 0.4 0.4 0.4 0.4 0.4 0.4 0.4 0.4
          0.4 0.4 0.4 0.4 0.4 0.4 0.4 0.4 0.4 0.4 0.4 0.4
          0.4 0.4 0.4 0.4 0.4 0.4 0.4 0.4 0.4 0.4 0.4 0.4
          0.4 0.4 0.4 0.4 0.4 0.4 0.4 0.4 0.4 0.4 0.4 0.4
          0.4 0.4 0.4 0.4 0.4 0.4 0.4 0.4 0.4 0.4 0.4 0.4
          0.4 0.4 0.4 0.4 0.4 0.4 0.4 0.4 0.4 0.4 0.4 0.4
          0.4 0.4 0.4 0.4 0.4 0.4 0.4 0.4 0.4 0.4 0.4 0.4
          0.4 0.4 0.4 0.4 0.4 0.4 0.4 0.4 0.4 0.4 0.4 0.4
          0.4 0.4 0.4 0.4 0.4 0.4 0.4 0.4 0.4 0.4 0.4 0.4
          0.4 0.4 0.4 0.4 0.4 0.4 0.4 0.4 0.4 0.4 0.4 0.4
          0.4 0.4 0.4 0.4 0.4 0.4 0.4 0.4 0.4 0.4 0.4 0.4
          0.4 0.4 0.4 0.4 0.4 0.4 0.4 0.4 0.4 0.4 0.4 0.4
          0.4 0.4 0.4 0.4 0.4 0.4 0.4 0.4 0.4 0.4 0.4 0.4
          0.4 0.4 0.4 0.4 0.4 0.4 0.4 0.4 0.4 0.4 0.4 0.4
          0.4 0.4 0.4 0.4 0.4 0.4 0.4 0.4 0.4 0.4 0.4 0.4
          0.4 0.4 0.4 0.4 0.4 0.4 0.4 0.4 0.4 0.4 0.4 0.4
        </DataArray>
        <DataArray type="Float32" Name="moleFrac_w^H2O" NumberOfComponents="1" format="ascii">
          0.999984 0.999984 0.999984 0.999984 0.999984 0.999984 0.999984 0.999984 0.999984 0.999984 0.999984 0.999984
          0.999984 0.999984 0.999985 0.999985 0.999985 0.999985 0.999985 0.999985 0.999985 0.999985 0.999985 0.999985
          0.999985 0.999985 0.999985 0.999985 0.999985 0.999985 0.999985 0.999985 0.999985 0.999985 0.999985 0.999985
          0.999985 0.999985 0.999985 0.999985 0.999985 0.999985 0.999985 0.999985 0.999985 0.999985 0.999985 0.999985
          0.999985 0.999985 0.999985 0.999985 0.999985 0.999985 0.999985 0.999985 0.999985 0.999985 0.999985 0.999985
          0.999985 0.999985 0.999985 0.999985 0.999985 0.999985 0.999985 0.999985 0.999985 0.999985 0.999985 0.999985
          0.999985 0.999985 0.999985 0.999985 0.999985 0.999985 0.999985 0.999985 0.999985 0.999985 0.999985 0.999985
          0.999985 0.999985 0.999985 0.999985 0.999985 0.999985 0.999985 0.999985 0.999985 0.999985 0.999985 0.999985
          0.999985 0.999985 0.999985 0.999985 0.999985 0.999985 0.999984 0.999984 0.999984 0.999984 0.999984 0.999984
          0.999984 0.999985 0.999985 0.999985 0.999985 0.999985 0.999985 0.999985 0.999985 0.999985 0.999985 0.999985
          0.999985 0.999985 0.999985 0.999985 0.999985 0.999985 0.999985 0.999985 0.999985 0.999985 0.999985 0.999985
          0.999985 0.999985 0.999985 0.999985 0.999985 0.999985 0.999985 0.999985 0.999985 0.999985 0.999985 0.999985
          0.999985 0.999985 0.999985 0.999985 0.999985 0.999985 0.999985 0.999985 0.999985 0.999984 0.999984 0.999984
          0.999984 0.999984 0.999981 0.999981 0.999981 0.999984 0.999985 0.999985 0.999985 0.999985 0.999985 0.999985
          0.999985 0.999985 0.999985 0.999985 0.999985 0.999985 0.999985 0.999985 0.999985 0.999985 0.999985 0.999985
          0.999985 0.999985 0.999985 0.999985 0.999985 0.999985 0.999985 0.999985 0.999985 0.999985 0.999985 0.999985
          0.999985 0.999985 0.999985 0.999985 0.999985 0.999985 0.999985 0.999985 0.999985 0.999985 0.999985 0.999985
        </DataArray>
        <DataArray type="Float32" Name="moleFrac_w^mesitylene" NumberOfComponents="1" format="ascii">
          -4.79426e-18 -4.01779e-18 7.37436e-19 1.31437e-17 6.50949e-18 3.25344e-18 1.21776e-17 -7.16045e-19 1.10019e-17 2.83807e-18 3.13894e-16 1.19939e-12
          4.17635e-16 1.15649e-12 3.30852e-16 8.82725e-13 2.30975e-17 6.16803e-14 1.37194e-18 2.47124e-15 1.36608e-18 6.99836e-17 1.02094e-18 1.02054e-18
          -6.78673e-19 -3.0528e-18 6.77103e-19 -3.38416e-19 2.36551e-18 6.75589e-19 -1.34977e-18 -3.37307e-19 -1.01119e-18 -6.73854e-19 -1.01031e-18 -1.68317e-18
          2.01927e-18 3.3641e-19 3.36375e-19 -3.3624e-19 -1.00874e-18 -1.00833e-18 1.00845e-18 6.72028e-19 2.35253e-18 3.35942e-19 6.72045e-19 2.01533e-18
          1.00795e-18 -1.00754e-18 -6.71906e-19 2.01491e-18 3.35931e-19 1.00739e-18 1.00775e-18 2.35046e-18 1.00771e-18 1.00731e-18 -2.35126e-18 -3.3576e-19
          0 -6.71508e-19 -6.71768e-19 1.67875e-18 -1.00764e-18 1.67873e-18 6.71757e-19 -2.35021e-18 -3.35877e-19 0 -6.71751e-19 6.71482e-19
          -1.00762e-18 1.00722e-18 1.00762e-18 1.6787e-18 -1.00762e-18 3.35739e-19 -1.00762e-18 1.00722e-18 -1.00762e-18 1.34295e-18 1.00762e-18 -6.71477e-19
          2.35111e-18 1.00721e-18 -6.71745e-19 1.34295e-18 -1.67936e-18 1.34295e-18 -1.00762e-18 2.01443e-18 0 6.71476e-19 -6.71745e-19 -1.00721e-18
          -1.00762e-18 2.35017e-18 3.02289e-18 -1.00722e-18 0 2.01414e-18 1.47469e-18 -3.64956e-18 -1.08405e-18 1.07364e-18 1.75121e-14 3.27277e-09
          2.71403e-09 2.36698e-09 1.62086e-10 6.46301e-12 1.74786e-13 3.49054e-15 5.52675e-17 -1.01484e-18 3.37659e-18 6.74343e-19 6.73584e-19 2.3555e-18
          -1.00883e-18 -6.72211e-19 -6.71953e-19 3.3588e-19 -3.35807e-19 -1.00726e-18 2.01428e-18 -6.71368e-19 0 6.71292e-19 -6.71269e-19 1.00688e-18
          -6.7124e-19 1.00685e-18 -1.00684e-18 1.00683e-18 1.34243e-18 2.01364e-18 0 -1.00682e-18 2.68484e-18 -1.00681e-18 6.71208e-19 -2.01362e-18
          0 -2.34923e-18 1.00681e-18 -1.67802e-18 1.00681e-18 -6.71208e-19 -1.00681e-18 2.34922e-18 1.00695e-18 2.58023e-18 5.47208e-18 -2.52843e-18
          -7.15471e-19 4.06996e-11 3.40289e-06 3.40291e-06 3.40294e-06 2.51832e-07 1.00352e-08 2.71199e-10 5.38787e-12 8.13074e-14 9.42749e-16 9.11315e-18
          -1.01111e-18 6.73315e-19 2.01819e-18 6.72282e-19 -1.34388e-18 6.71684e-19 1.00724e-18 1.00702e-18 6.71238e-19 2.68463e-18 1.3422e-18 1.00658e-18
          1.00654e-18 6.71e-19 1.00647e-18 -1.00646e-18 1.6774e-18 -6.70955e-19 -3.35475e-19 1.67737e-18 1.00642e-18 0 1.67735e-18 -6.70941e-19
          -1.00641e-18 1.00641e-18 -3.3547e-19 6.70939e-19 -6.70939e-19 2.34829e-18 1.00641e-18 -1.00641e-18 6.70939e-19 0 6.7093e-19 1.00676e-18
        </DataArray>
        <DataArray type="Float32" Name="moleFrac_w^Air" NumberOfComponents="1" format="ascii">
          1.64476e-05 1.62882e-05 1.64444e-05 1.62814e-05 1.61251e-05 1.61186e-05 1.59685e-05 1.5962e-05 1.58212e-05 1.58148e-05 1.56858e-05 1.56795e-05
          1.55638e-05 1.55575e-05 1.54561e-05 1.54498e-05 1.53629e-05 1.53566e-05 1.52838e-05 1.52776e-05 1.52177e-05 1.52116e-05 1.51634e-05 1.51572e-05
          1.51192e-05 1.51131e-05 1.50838e-05 1.50777e-05 1.50558e-05 1.50497e-05 1.50338e-05 1.50277e-05 1.50166e-05 1.50106e-05 1.50034e-05 1.49974e-05
          1.49933e-05 1.49873e-05 1.49856e-05 1.49796e-05 1.49798e-05 1.49738e-05 1.49755e-05 1.49694e-05 1.49722e-05 1.49661e-05 1.49698e-05 1.49637e-05
          1.4968e-05 1.49619e-05 1.49666e-05 1.49606e-05 1.49656e-05 1.49596e-05 1.49649e-05 1.49589e-05 1.49644e-05 1.49583e-05 1.4964e-05 1.49579e-05
          1.49637e-05 1.49577e-05 1.49635e-05 1.49575e-05 1.49634e-05 1.49573e-05 1.49633e-05 1.49572e-05 1.49632e-05 1.49571e-05 1.49631e-05 1.49571e-05
          1.49631e-05 1.4957e-05 1.49631e-05 1.4957e-05 1.4963e-05 1.4957e-05 1.4963e-05 1.4957e-05 1.4963e-05 1.4957e-05 1.4963e-05 1.49569e-05
          1.4963e-05 1.49569e-05 1.4963e-05 1.49569e-05 1.4963e-05 1.49569e-05 1.4963e-05 1.49569e-05 1.4963e-05 1.49569e-05 1.4963e-05 1.49569e-05
          1.4963e-05 1.49569e-05 1.49632e-05 1.4957e-05 1.49577e-05 1.49548e-05 1.64424e-05 1.62748e-05 1.61121e-05 1.59556e-05 1.58084e-05 1.56732e-05
          1.55512e-05 1.54436e-05 1.53504e-05 1.52714e-05 1.52054e-05 1.51511e-05 1.5107e-05 1.50716e-05 1.50436e-05 1.50216e-05 1.50045e-05 1.49913e-05
          1.49812e-05 1.49735e-05 1.49677e-05 1.49633e-05 1.49601e-05 1.49576e-05 1.49558e-05 1.49545e-05 1.49535e-05 1.49528e-05 1.49523e-05 1.49519e-05
          1.49516e-05 1.49514e-05 1.49512e-05 1.49511e-05 1.49511e-05 1.4951e-05 1.4951e-05 1.49509e-05 1.49509e-05 1.49509e-05 1.49509e-05 1.49509e-05
          1.49509e-05 1.49509e-05 1.49509e-05 1.49509e-05 1.49509e-05 1.49509e-05 1.49509e-05 1.49509e-05 1.4953e-05 1.64393e-05 1.6268e-05 1.61056e-05
          1.59491e-05 1.5802e-05 1.56499e-05 1.55279e-05 1.54203e-05 1.53428e-05 1.52652e-05 1.51992e-05 1.51449e-05 1.51008e-05 1.50655e-05 1.50375e-05
          1.50155e-05 1.49984e-05 1.49852e-05 1.49751e-05 1.49674e-05 1.49616e-05 1.49573e-05 1.4954e-05 1.49516e-05 1.49498e-05 1.49484e-05 1.49474e-05
          1.49467e-05 1.49462e-05 1.49458e-05 1.49455e-05 1.49453e-05 1.49452e-05 1.49451e-05 1.4945e-05 1.49449e-05 1.49449e-05 1.49449e-05 1.49449e-05
          1.49448e-05 1.49448e-05 1.49448e-05 1.49448e-05 1.49448e-05 1.49448e-05 1.49448e-05 1.49448e-05 1.49448e-05 1.49448e-05 1.49446e-05 1.49501e-05
        </DataArray>
        <DataArray type="Float32" Name="moleFrac_n^H2O" NumberOfComponents="1" format="ascii">
          1.09016e-05 1.09016e-05 1.09016e-05 1.09016e-05 1.09016e-05 1.09016e-05 1.09016e-05 1.09016e-05 1.09017e-05 1.09017e-05 1.09017e-05 1.09017e-05
          1.09017e-05 1.09017e-05 1.09017e-05 1.09017e-05 1.09017e-05 1.09017e-05 1.09017e-05 1.09017e-05 1.09017e-05 1.09017e-05 1.09017e-05 1.09017e-05
          1.09017e-05 1.09017e-05 1.09017e-05 1.09017e-05 1.09017e-05 1.09017e-05 1.09017e-05 1.09017e-05 1.09017e-05 1.09017e-05 1.09017e-05 1.09017e-05
          1.09017e-05 1.09017e-05 1.09017e-05 1.09017e-05 1.09017e-05 1.09017e-05 1.09017e-05 1.09017e-05 1.09017e-05 1.09017e-05 1.09017e-05 1.09017e-05
          1.09017e-05 1.09017e-05 1.09017e-05 1.09017e-05 1.09017e-05 1.09017e-05 1.09017e-05 1.09017e-05 1.09017e-05 1.09017e-05 1.09017e-05 1.09017e-05
          1.09017e-05 1.09017e-05 1.09017e-05 1.09017e-05 1.09017e-05 1.09017e-05 1.09017e-05 1.09017e-05 1.09017e-05 1.09017e-05 1.09017e-05 1.09017e-05
          1.09017e-05 1.09017e-05 1.09017e-05 1.09017e-05 1.09017e-05 1.09017e-05 1.09017e-05 1.09017e-05 1.09017e-05 1.09017e-05 1.09017e-05 1.09017e-05
          1.09017e-05 1.09017e-05 1.09017e-05 1.09017e-05 1.09017e-05 1.09017e-05 1.09017e-05 1.09017e-05 1.09017e-05 1.09017e-05 1.09017e-05 1.09017e-05
          1.09017e-05 1.09017e-05 1.09017e-05 1.09017e-05 1.09017e-05 1.09017e-05 1.09016e-05 1.09016e-05 1.09016e-05 1.09016e-05 1.09017e-05 1.09017e-05