<?xml version="1.0"?>
<VTKFile type="UnstructuredGrid" version="0.1" byte_order="LittleEndian">
  <UnstructuredGrid>
    <Piece NumberOfCells="2500" NumberOfPoints="2761">
      <PointData Scalars="pressure_w">
        <DataArray type="Float32" Name="pressure_w" NumberOfComponents="1" format="ascii">
          149050 149560 139240 139747 150109 140297 150685 140876 151271 141463 151856 142049
          152438 142631 153013 143206 153582 143776 154144 144337 154697 144890 155241 145435
          155776 145970 156300 146494 156815 147008 157320 147513 157820 148012 158320 148511
          158823 149015 159329 149521 159835 150027 160341 150533 160852 151043 161377 151566
          161923 152113 162488 152680 163053 153248 163596 153794 164093 154293 164524 154727
          164873 155077 165125 155330 165272 155478 165313 155519 165253 155456 165102 155303
          164885 155082 164631 154824 164370 154560 164126 154315 163908 154098 163712 153902
          163530 153721 163359 153550 163195 153387 163038 153230 162887 153079 162741 152932
          162599 152791 162461 152653 162327 152519 162197 152389 162070 152261 161945 152137
          161824 152016 161705 151897 161589 151780 161474 151666 161363 151555 161253 151445
          161146 151338 161040 151232 160936 151128 160834 151026 160734 150926 160636 150828
          160539 150731 160444 150636 160350 150542 160258 150450 160167 150359 160078 150270
          159990 150182 159904 150096 159818 150011 159735 149927 159652 149844 159571 149764
          159492 149684 159414 149606 159337 149529 159262 149454 159188 149380 159116 149308
          159045 149237 158977 149169 158911 149102 158848 149040 158790 148981 158737 148928
          158690 148882 158650 148842 158617 148809 158591 148783 158571 148762 158555 148747
          158544 148736 158536 148728 158530 148722 158526 148718 158523 148715 158521 148713
          158520 148712 158520 148712 158519 148711 158519 148711 158519 148711 158519 148712
          158520 148712 158520 148712 158520 148712 158520 148713 158521 148713 158521 148713
          158521 148713 158521 148714 158521 148714 158522 148714 158522 148714 158522 148714
          158521 148714 158521 148713 158521 148713 158520 148712 158519 148712 158519 148711
          158517 148710 158516 148708 158515 148707 158513 148705 158511 148703 158508 148700
          158505 148698 158502 148694 158499 148691 158495 148687 158491 148683 158486 148678
          158481 148673 158476 148668 158470 148662 158464 148656 158458 148650 158451 148644
          158444 148637 158437 148629 158430 148622 158422 148614 158414 148607 158406 148599
          158398 148591 158390 148582 158382 148574 158373 148565 158365 148557 158356 148548
          158347 148539 158338 148531 158330 148522 158321 148513 158312 148504 158303 148495
          158294 148486 158285 148477 158276 148468 158267 148459 158258 148450 158249 148441
          158240 148432 158230 148423 158221 148414 158212 148404 158203 148395 158194 148386
          158185 148377 158175 148368 158166 148358 158157 148349 158148 148340 158139 148331
          158129 148322 158120 148312 158111 148303 158101 148294 158092 148284 158083 148275
          158073 148266 158064 148256 158054 148247 158045 148237 158035 148228 158026 148218
          158016 148208 158006 148198 157996 148188 157986 148178 157975 148167 157964 148156
          157953 148145 157941 148133 157928 148120 157914 148107 157900 148092 157883 148076
          157866 148058 157845 148038 157823 148015 157796 147989 157766 147959 157731 147924
          157691 147884 157643 147836 157588 147781 157523 147716 157448 147641 157361 147555
          157261 147455 157147 147341 157018 147212 156874 147068 156714 146908 156538 146732
          156347 146541 156140 146334 155918 146112 155681 145875 155432 145626 155169 145363
          154895 145089 154609 144803 154314 144507 154008 144201 153693 143887 153370 143563
          153039 143232 152701 142894 152356 142549 152005 142198 151647 141840 151284 141477
          150916 141109 150543 140736 150165 140358 149783 139976 149394 139588 148995 139190
          148571 138768 148110 138307 147615 137809 147105 137297 146598 136788 129430 129920
          130478 131066 131656 132243 132825 133401 133970 134532 135086 135631 136166 136690
          137204 137707 138204 138701 139206 139714 140219 140723 141230 141750 142296 142872
          143448 144003 144511 144951 145307 145563 145711 145750 145684 145522 145289 145019
          144744 144496 144282 144090 143910 143740 143577 143420 143269 143123 142982 142844
          142710 142580 142453 142329 142207 142088 141972 141858 141746 141637 141529 141424
          141320 141218 141118 141020 140923 140828 140734 140642 140551 140462 140374 140288
          140203 140119 140036 139955 139876 139798 139721 139646 139572 139500 139429 139360
          139294 139230 139172 139118 139072 139032 138999 138973 138953 138938 138927 138919
          138914 138910 138907 138906 138905 138904 138904 138904 138904 138904 138904 138904
          138905 138905 138905 138905 138906 138906 138906 138906 138906 138906 138906 138906
          138905 138905 138904 138903 138902 138901 138899 138897 138895 138893 138890 138887
          138883 138880 138875 138871 138866 138861 138855 138849 138843 138836 138829 138822
          138814 138807 138799 138791 138783 138775 138766 138758 138749 138740 138732 138723
          138714 138705 138696 138687 138678 138669 138660 138651 138642 138633 138624 138615
          138606 138597 138588 138578 138569 138560 138551 138542 138532 138523 138514 138505
          138495 138486 138477 138467 138458 138448 138439 138430 138420 138410 138400 138391
          138381 138370 138360 138349 138337 138326 138313 138299 138285 138269 138251 138231
          138209 138183 138153 138119 138079 138032 137977 137913 137838 137752 137652 137539
          137410 137266 137107 136931 136739 136531 136309 136073 135822 135560 135285 134999
          134703 134397 134082 133758 133427 133089 132744 132392 132035 131671 131303 130930
          130552 130170 129783 129391 128976 128514 128007 127486 126978 119620 120069 120654
          121255 121849 122438 123021 123597 124167 124729 125284 125829 126364 126889 127402
          127904 128396 128889 129397 129908 130412 130913 131415 131925 132471 133064 133654
          134230 134750 135203 135568 135829 135978 136015 135940 135763 135505 135215 134921
          134669 134461 134274 134097 133928 133766 133610 133459 133313 133172 133034 132901
          132771 132644 132520 132398 132280 132163 132049 131938 131828 131721 131615 131512
          131410 131310 131211 131115 131020 130926 130834 130743 130654 130566 130479 130394
          130311 130228 130147 130068 129990 129913 129837 129763 129691 129621 129551 129484
          129420 129361 129307 129260 129220 129187 129161 129142 129128 129117 129110 129105
          129101 129099 129098 129097 129096 129096 129096 129096 129096 129096 129097 129097
          129097 129098 129098 129098 129098 129098 129099 129099 129099 129098 129098 129098
          129097 129097 129096 129095 129093 129092 129090 129088 129085 129083 129079 129076
          129072 129068 129063 129058 129053 129047 129041 129035 129028 129022 129014 129007
          128999 128992 128984 128975 128967 128959 128950 128942 128933 128924 128915 128906
          128898 128889 128880 128871 128862 128853 128844 128835 128826 128816 128807 128798
          128789 128780 128771 128762 128752 128743 128734 128725 128715 128706 128697 128688
          128678 128669 128660 128650 128641 128631 128622 128612 128603 128593 128583 128573
          128563 128552 128541 128530 128518 128506 128493 128478 128462 128445 128425 128403
          128378 128349 128315 128275 128229 128175 128112 128038 127952 127853 127740 127612
          127469 127309 127133 126941 126733 126510 126273 126023 125759 125484 125198 124901
          124595 124279 123955 123624 123285 122940 122588 122230 121867 121498 121125 120747
          120365 119980 119596 119199 118732 118208 117670 117168 109810 110168 110833 111444
          112044 112634 113218 113795 114365 114928 115483 116029 116565 117090 117604 118103
          118589 119071 119587 120104 120606 121104 121599 122093 122627 123265 123889 124504
          125052 125540 125930 126202 126353 126383 126290 126070 125742 125416 125086 124830
          124637 124457 124282 124115 123953 123798 123648 123502 123361 123224 123091 122961
          122834 122710 122589 122470 122354 122240 122129 122019 121912 121806 121703 121601
          121501 121403 121306 121211 121118 121026 120935 120846 120758 120671 120586 120502
          120420 120339 120259 120181 120104 120029 119955 119883 119812 119742 119674 119609
          119549 119494 119446 119406 119374 119349 119330 119317 119307 119300 119296 119293
          119291 119289 119289 119288 119288 119288 119288 119289 119289 119289 119289 119290
          119290 119290 119291 119291 119291 119291 119291 119291 119291 119291 119290 119290
          119289 119288 119287 119286 119284 119283 119281 119278 119275 119272 119269 119265
          119261 119256 119251 119246 119240 119234 119228 119221 119214 119207 119200 119192
          119184 119176 119168 119160 119151 119143 119134 119125 119117 119108 119099 119090
          119081 119072 119063 119054 119045 119036 119027 119018 119009 119000 118991 118982
          118972 118963 118954 118945 118936 118926 118917 118908 118899 118889 118880 118871
          118861 118852 118843 118833 118824 118814 118805 118795 118786 118776 118766 118756
          118745 118734 118723 118711 118699 118686 118672 118656 118639 118620 118598 118574
          118545 118512 118474 118428 118375 118313 118240 118156 118058 117946 117818 117675
          117515 117339 117147 116938 116715 116477 116226 115962 115686 115399 115101 114795
          114479 114154 113822 113483 113137 112785 112427 112064 111695 111321 110943 110561
          110176 109796 109471 109079 108597 107797 107358 100000 105253 106117 106446 106602
          106715 106821 106928 107040 107161 107290 107433 107592 107777 108005 108333 108784
          109241 109779 110305 110800 111294 111785 112252 112766 113607 114474 115109 115686
          116247 116687 116982 117140 117162 117039 116750 116274 115680 115236 114974 114812
          114639 114466 114300 114139 113985 113835 113690 113550 113413 113280 113150 113024
          112900 112779 112661 112545 112431 112320 112210 112103 111997 111894 111792 111692
          111594 111498 111403 111309 111217 111127 111037 110949 110863 110778 110694 110612
          110531 110451 110373 110296 110220 110146 110074 110004 109933 109863 109797 109736
          109680 109631 109591 109559 109534 109517 109505 109496 109490 109487 109484 109482
          109481 109481 109481 109480 109481 109481 109481 109481 109482 109482 109482 109483
          109483 109483 109483 109484 109484 109484 109484 109484 109483 109483 109483 109482
          109481 109480 109479 109477 109476 109473 109471 109468 109465 109462 109458 109454
          109449 109444 109439 109433 109427 109421 109414 109407 109400 109392 109385 109377
          109369 109361 109352 109344 109335 109327 109318 109309 109300 109292 109283 109274
          109265 109256 109247 109238 109229 109220 109211 109201 109192 109183 109174 109165
          109156 109147 109137 109128 109119 109110 109101 109091 109082 109073 109063 109054
          109045 109035 109026 109017 109007 108998 108988 108979 108969 108959 108949 108939
          108929 108918 108907 108896 108884 108872 108859 108844 108829 108812 108794 108773
          108750 108724 108694 108661 108624 108583 108537 108487 108433 108374 108312 108247
          108180 108110 108040 107969 107897 107826 107756 107686 107618 107551 107485 107421
          107358 107297 107238 107180 107124 107069 107016 106964 106914 106865 106817 106770
          106727 106648 106534 106247 105719 100000 100000 100170 100610 100761 100798 100796
          100783 100769 100752 100738 100723 100708 100694 100681 100670 100660 100657 100662
          100637 100614 100991 101486 101973 102458 102898 103727 104442 105071 105743 106412
          106900 107227 107401 107424 107288 106966 106418 105680 105317 105116 104996 104818
          104649 104484 104324 104171 104022 103878 103738 103601 103469 103339 103213 103090
          102969 102851 102735 102621 102510 102401 102293 102188 102085 101983 101883 101785
          101689 101594 101501 101409 101318 101229 101141 101054 100969 100885 100803 100722
          100642 100564 100487 100412 100338 100265 100197 100181 100174 100167 100160 100152
          100145 100136 100128 100120 100110 100103 100092 100084 100074 100065 100056 100046
          100038 100027 100019 100010 100000 99990.6 99981.1 99973 99962.1 99954 99944.5 99935
          99926.9 99915.9 99907.8 99898.3 99888.8 99879.3 99869.8 99861.7 99850.7 99842.6 99833.1 99823.6
          99814.1 99804.5 99796.4 99786.9 99777.4 99767.9 99758.3 99750.2 99739.3 99731.2 99721.7 99712.1
          99702.6 99693.1 99685 99674.1 99666 99656.5 99646.9 99637.4 99627.9 99619.8 99610.3 99600.8
          99591.2 99581.7 99573.6 99562.7 99554.6 99545.1 99535.5 99526 99516.5 99508.4 99497.4 99489.3
          99479.8 99470.3 99460.7 99451.2 99443.1 99433.6 99424 99414.5 99405 99396.9 99385.9 99377.8
          99368.2 99358.7 99349.1 99339.6 99331.5 99320.5 99312.4 99302.9 99293.3 99283.8 99274.2 99266.1
          99256.6 99247 99237.5 99227.9 99219.8 99208.8 99200.7 99191.1 99181.6 99172 99162.5 99154.4
          99143.4 99135.3 99125.8 99116.2 99108.2 99097.2 99089.2 99079.7 99070.3 99060.8 99051.5 99043.6
          99032.9 99025.2 99016.1 99007.1 98998.4 98989.8 98982.8 98974.7 98966.8 98959.2 98952.1 98946.6
          98938.9 98934.2 98928.6 98923.4 98918.6 98914.1 98911.3 98906.2 98904 98900.8 98898 98895.5
          98893.1 98892.2 98890.2 98888.6 98887.2 98885.8 98886 98883.7 98884.1 98883.4 98882.5 98878
          98853.9 98796 98709.5 98149.3 100000 100000 97632.9 97673.9 97721.4 97728.6 97725.9 97720.1
          97713.7 97707.4 97701.5 97696.2 97691.5 97687.5 97684.5 97683 97683.7 97688 97693.1 97685.1
          97674.1 97664.8 97656 97648.5 97639.1 93548 94396.1 94738.1 94867.2 95176.8 95528 95854.4
          96107.6 96261.1 96299.1 96212.7 96003.7 95682.5 95468 95199.1 97022.9 97701.7 97707.6 97713.3
          97719.2 97725 97730.6 97736 97741.4 97746.5 97751.6 97756.5 97761.4 97766.1 97770.7 97775.3
          97779.8 97784.2 97788.5 97792.7 97796.9 97801 97805.1 97809.1 97813 97816.9 97820.7 97824.5
          97828.2 97831.9 97835.5 97839.1 97842.6 97846.1 97849.5 97852.9 97856.3 97859.6 97862.8 97866
          97869.2 97872.3 97875.4 97878.5 97881.4 97884.3 97887.2 97890 97892.8 97895.3 97897.6 97899.6
          97901.4 97902.8 97904 97905 97905.8 97906.6 97907.2 97907.9 97908.5 97909 97909.6 97910.1
          97910.7 97911.2 97911.8 97912.3 97912.8 97913.4 97913.9 97914.4 97914.9 97915.4 97916 97916.5
          97917 97917.5 97918 97918.5 97919.1 97919.6 97920.1 97920.6 97921.1 97921.6 97922.1 97922.6
          97923.2 97923.7 97924.2 97924.7 97925.2 97925.7 97926.2 97926.7 97927.2 97927.8 97928.3 97928.8
          97929.3 97929.8 97930.3 97930.8 97931.4 97931.9 97932.4 97932.9 97933.4 97933.9 97934.5 97935
          97935.5 97936 97936.5 97937 97937.5 97938.1 97938.6 97939.1 97939.6 97940.1 97940.6 97941.1
          97941.6 97942.1 97942.6 97943.1 97943.6 97944.1 97944.6 97945.1 97945.6 97946.1 97946.6 97947.1
          97947.6 97948.1 97948.6 97949.1 97949.6 97950.1 97950.6 97951.1 97951.6 97952.1 97952.6 97953
          97953.5 97954 97954.5 97955 97955.5 97956 97956.5 97957 97957.4 97957.9 97958.4 97958.9
          97959.4 97959.9 97960.4 97961 97961.5 97962.1 97962.6 97963.2 97963.9 97964.5 97965.3 97966.1
          97966.9 97967.9 97969 97970.3 97971.7 97973.4 97975.3 97977.5 97980 97982.8 97986.1 97989.7
          97993.6 97998 98002.8 98008 98013.5 98019.3 98025.5 98032.1 98038.9 98046 98053.4 98061
          98068.9 98077 98085.3 98093.8 98102.4 98111.3 98120.3 98129.5 98138.8 98147.9 98154.6 98154.1
          98148.4 98118.6 98244.4 100000 100000 98358 97865.7 97766.3 97732.4 97717.6 97708.4 97701
          97694.5 97688.6 97683.3 97678.7 97674.9 97672.1 97670.9 97671.5 97674.1 97675.4 97669.8 97660.7
          97651.4 97642.3 97632.7 97431.3 92809.2 94400.3 94699.1 94713.7 94715.8 94707.2 94700.2 94698
          94700.4 94707.3 94719.1 94737 94761.6 94749.6 93497.4 96653 97686.3 97693.6 97699.8 97705.8
          97711.6 97717.2 97722.7 97728 97733.1 97738.2 97743.1 97748 97752.7 97757.4 97761.9 97766.4
          97770.8 97775.1 97779.4 97783.6 97787.7 97791.8 97795.7 97799.7 97803.6 97807.4 97811.1 97814.9
          97818.5 97822.2 97825.7 97829.3 97832.8 97836.2 97839.6 97842.9 97846.2 97849.5 97852.7 97855.9
          97859 97862.1 97865.1 97868.1 97871 97873.8 97876.6 97879.3 97881.8 97884.1 97886.1 97887.9
          97889.4 97890.6 97891.6 97892.4 97893.2 97893.9 97894.5 97895.1 97895.7 97896.3 97896.8 97897.4
          97897.9 97898.4 97899 97899.5 97900 97900.6 97901.1 97901.6 97902.1 97902.6 97903.2 97903.7
          97904.2 97904.7 97905.2 97905.7 97906.3 97906.8 97907.3 97907.8 97908.3 97908.8 97909.3 97909.8
          97910.3 97910.9 97911.4 97911.9 97912.4 97912.9 97913.4 97913.9 97914.4 97914.9 97915.5 97916
          97916.5 97917 97917.5 97918 97918.6 97919.1 97919.6 97920.1 97920.6 97921.1 97921.6 97922.2
          97922.7 97923.2 97923.7 97924.2 97924.7 97925.2 97925.8 97926.3 97926.8 97927.3 97927.8 97928.3
          97928.8 97929.3 97929.8 97930.3 97930.8 97931.3 97931.8 97932.3 97932.8 97933.3 97933.8 97934.3
          97934.8 97935.3 97935.8 97936.3 97936.8 97937.3 97937.8 97938.3 97938.8 97939.2 97939.7 97940.2
          97940.7 97941.2 97941.7 97942.2 97942.7 97943.1 97943.6 97944.1 97944.6 97945.1 97945.6 97946.1
          97946.6 97947.1 97947.7 97948.2 97948.7 97949.3 97949.9 97950.6 97951.2 97952 97952.8 97953.7
          97954.7 97955.8 97957.1 97958.5 97960.2 97962.1 97964.4 97966.9 97969.7 97973 97976.6 97980.6
          97984.9 97989.7 97994.9 98000.4 98006.2 98012.4 98018.9 98025.7 98032.8 98040.2 98047.8 98055.7
          98063.8 98072.1 98080.5 98089.2 98098.1 98107.1 98116.2 98125.6 98135.1 98144.6 98157.6 98189.8
          98294.9 98744.8 100000 100000 98665.2 98011.4 97798.7 97732.4 97708.2 97696.3 97688.2 97681.5
          97675.6 97670.3 97665.7 97662 97659.4 97658.2 97658.7 97660.2 97660.1 97655.2 97647.1 97638.1
          97628.6 97617.9 97166.6 92958 94425.2 94690.6 94697.4 94697.4 94691.3 94685.1 94682.8 94685
          94692 94704.3 94722.5 94745.4 94745.4 93463.2 96439.4 97672 97679.9 97686.4 97692.4 97698.2
          97703.9 97709.3 97714.6 97719.8 97724.9 97729.8 97734.7 97739.4 97744 97748.6 97753.1 97757.5
          97761.8 97766.1 97770.2 97774.4 97778.4 97782.4 97786.4 97790.2 97794.1 97797.8 97801.5 97805.2
          97808.8 97812.4 97815.9 97819.4 97822.9 97826.3 97829.6 97832.9 97836.2 97839.4 97842.5 97845.7
          97848.8 97851.8 97854.7 97857.6 97860.5 97863.3 97866 97868.4 97870.7 97872.7 97874.5 97875.9
          97877.2 97878.2 97879.1 97879.9 97880.6 97881.2 97881.8 97882.4 97883 97883.5 97884.1 97884.6
          97885.1 97885.7 97886.2 97886.7 97887.2 97887.8 97888.3 97888.8 97889.3 97889.9 97890.4 97890.9
          97891.4 97891.9 97892.4 97892.9 97893.5 97894 97894.5 97895 97895.5 97896 97896.5 97897
          97897.5 97898 97898.6 97899.1 97899.6 97900.1 97900.6 97901.1 97901.6 97902.1 97902.7 97903.2
          97903.7 97904.2 97904.7 97905.2 97905.8 97906.3 97906.8 97907.3 97907.8 97908.3 97908.8 97909.4
          97909.9 97910.4 97910.9 97911.4 97911.9 97912.4 97912.9 97913.5 97914 97914.5 97915 97915.5
          97916 97916.5 97917 97917.5 97918 97918.5 97919 97919.5 97920 97920.5 97921 97921.5
          97922 97922.5 97923 97923.5 97924 97924.4 97924.9 97925.4 97925.9 97926.4 97926.9 97927.4
          97927.9 97928.4 97928.8 97929.3 97929.8 97930.3 97930.8 97931.3 97931.8 97932.3 97932.8 97933.3
          97933.8 97934.3 97934.9 97935.4 97936 97936.6 97937.3 97937.9 97938.7 97939.5 97940.4 97941.4
          97942.5 97943.8 97945.3 97947 97948.9 97951.1 97953.7 97956.5 97959.8 97963.4 97967.4 97971.8
          97976.5 97981.7 97987.2 97993 97999.2 98005.7 98012.5 98019.6 98027 98034.6 98042.4 98050.5
          98058.8 98067.3 98075.9 98084.8 98093.8 98103 98112.4 98122.3 98134.4 98156.9 98219 98412.7
          98959.7 100000 100000 98742.2 98053.8 97802.9 97724.1 97696.4 97683.4 97675.1 97668.3 97662.4
          97657.1 97652.5 97648.9 97646.3 97645.1 97645.6 97646.7 97646.2 97641.5 97633.7 97624.7 97615.2
          97604 97064.9 92786.2 94430.2 94681 94683.5 94683 94677.7 94672 94669.7 94672 94679
          94691.4 94709.6 94731.8 94746.3 93162.3 96591.7 97658.4 97666.4 97673 97679.1 97684.9 97690.5
          97696 97701.3 97706.5 97711.6 97716.5 97721.3 97726.1 97730.7 97735.3 97739.8 97744.2 97748.5
          97752.8 97756.9 97761.1 97765.1 97769.1 97773 97776.9 97780.8 97784.5 97788.2 97791.9 97795.5
          97799.1 97802.6 97806.1 97809.6 97812.9 97816.3 97819.6 97822.9 97826.1 97829.2 97832.4 97835.4
          97838.5 97841.4 97844.3 97847.2 97850 97852.6 97855.1 97857.4 97859.4 97861.1 97862.6 97863.8
          97864.9 97865.8 97866.5 97867.2 97867.9 97868.5 97869.1 97869.6 97870.2 97870.7 97871.3 97871.8
          97872.3 97872.9 97873.4 97873.9 97874.5 97875 97875.5 97876 97876.5 97877 97877.6 97878.1
          97878.6 97879.1 97879.6 97880.1 97880.6 97881.2 97881.7 97882.2 97882.7 97883.2 97883.7 97884.2
          97884.7 97885.2 97885.8 97886.3 97886.8 97887.3 97887.8 97888.3 97888.8 97889.3 97889.9 97890.4
          97890.9 97891.4 97891.9 97892.4 97892.9 97893.5 97894 97894.5 97895 97895.5 97896 97896.6
          97897.1 97897.6 97898.1 97898.6 97899.1 97899.6 97900.1 97900.6 97901.1 97901.7 97902.2 97902.7
          97903.2 97903.7 97904.2 97904.7 97905.2 97905.7 97906.2 97906.7 97907.2 97907.7 97908.2 97908.7
          97909.2 97909.6 97910.1 97910.6 97911.1 97911.6 97912.1 97912.6 97913.1 97913.6 97914.1 97914.5
          97915 97915.5 97916 97916.5 97917 97917.5 97918 97918.5 97919 97919.5 97920 97920.5
          97921 97921.6 97922.1 97922.7 97923.3 97923.9 97924.6 97925.4 97926.2 97927.1 97928.1 97929.2
          97930.5 97932 97933.7 97935.6 97937.9 97940.4 97943.3 97946.5 97950.1 97954.1 97958.5 97963.2
          97968.4 97973.9 97979.7 97985.9 97992.4 97999.2 98006.3 98013.7 98021.3 98029.1 98037.2 98045.5
          98054 98062.6 98071.5 98080.5 98089.7 98099.1 98109.2 98122.3 98148.3 98221.6 98444.1 99011.3
          100000
        </DataArray>
        <DataArray type="Float32" Name="pressure_n" NumberOfComponents="1" format="ascii">
          149050 149560 139240 139747 150109 140297 150685 140876 151271 141463 151856 142049
          152438 142631 153013 143206 153582 143776 154144 144337 154697 144890 155241 145435
          155776 145970 156300 146494 156815 147008 157320 147513 157820 148012 158320 148511
          158823 149015 159329 149521 159835 150027 160341 150533 160852 151043 161377 151566
          161923 152113 162488 152680 163053 153248 163596 153794 164093 154293 164524 154727
          164873 155077 165125 155330 165272 155478 165313 155519 165253 155456 165102 155303
          164885 155082 164631 154824 164370 154560 164126 154315 163908 154098 163712 153902
          163530 153721 163359 153550 163195 153387 163038 153230 162887 153079 162741 152932
          162599 152791 162461 152653 162327 152519 162197 152389 162070 152261 161945 152137
          161824 152016 161705 151897 161589 151780 161474 151666 161363 151555 161253 151445
          161146 151338 161040 151232 160936 151128 160834 151026 160734 150926 160636 150828
          160539 150731 160444 150636 160350 150542 160258 150450 160167 150359 160078 150270
          159990 150182 159904 150096 159818 150011 159735 149927 159652 149844 159571 149764
          159492 149684 159414 149606 159337 149529 159262 149454 159188 149380 159116 149308
          159045 149237 158977 149169 158911 149102 158848 149040 158790 148981 158737 148928
          158690 148882 158650 148842 158617 148809 158591 148783 158571 148762 158555 148747
          158544 148736 158536 148728 158530 148722 158526 148718 158523 148715 158521 148713
          158520 148712 158520 148712 158519 148711 158519 148711 158519 148711 158519 148712
          158520 148712 158520 148712 158520 148712 158520 148713 158521 148713 158521 148713
          158521 148713 158521 148714 158521 148714 158522 148714 158522 148714 158522 148714
          158521 148714 158521 148713 158521 148713 158520 148712 158519 148712 158519 148711
          158517 148710 158516 148708 158515 148707 158513 148705 158511 148703 158508 148700
          158505 148698 158502 148694 158499 148691 158495 148687 158491 148683 158486 148678
          158481 148673 158476 148668 158470 148662 158464 148656 158458 148650 158451 148644
          158444 148637 158437 148629 158430 148622 158422 148614 158414 148607 158406 148599
          158398 148591 158390 148582 158382 148574 158373 148565 158365 148557 158356 148548
          158347 148539 158338 148531 158330 148522 158321 148513 158312 148504 158303 148495
          158294 148486 158285 148477 158276 148468 158267 148459 158258 148450 158249 148441
          158240 148432 158230 148423 158221 148414 158212 148404 158203 148395 158194 148386
          158185 148377 158175 148368 158166 148358 158157 148349 158148 148340 158139 148331
          158129 148322 158120 148312 158111 148303 158101 148294 158092 148284 158083 148275
          158073 148266 158064 148256 158054 148247 158045 148237 158035 148228 158026 148218
          158016 148208 158006 148198 157996 148188 157986 148178 157975 148167 157964 148156
          157953 148145 157941 148133 157928 148120 157914 148107 157900 148092 157883 148076
          157866 148058 157845 148038 157823 148015 157796 147989 157766 147959 157731 147924
          157691 147884 157643 147836 157588 147781 157523 147716 157448 147641 157361 147555
          157261 147455 157147 147341 157018 147212 156874 147068 156714 146908 156538 146732
          156347 146541 156140 146334 155918 146112 155681 145875 155432 145626 155169 145363
          154895 145089 154609 144803 154314 144507 154008 144201 153693 143887 153370 143563
          153039 143232 152701 142894 152356 142549 152005 142198 151647 141840 151284 141477
          150916 141109 150543 140736 150165 140358 149783 139976 149394 139588 148995 139190
          148571 138768 148110 138307 147615 137809 147105 137297 146598 136788 129430 129920
          130478 131066 131656 132243 132825 133401 133970 134532 135086 135631 136166 136690
          137204 137707 138204 138701 139206 139714 140219 140723 141230 141750 142296 142872
          143448 144003 144511 144951 145307 145563 145711 145750 145684 145522 145289 145019
          144744 144496 144282 144090 143910 143740 143577 143420 143269 143123 142982 142844
          142710 142580 142453 142329 142207 142088 141972 141858 141746 141637 141529 141424
          141320 141218 141118 141020 140923 140828 140734 140642 140551 140462 140374 140288
          140203 140119 140036 139955 139876 139798 139721 139646 139572 139500 139429 139360
          139294 139230 139172 139118 139072 139032 138999 138973 138953 138938 138927 138919
          138914 138910 138907 138906 138905 138904 138904 138904 138904 138904 138904 138904
          138905 138905 138905 138905 138906 138906 138906 138906 138906 138906 138906 138906
          138905 138905 138904 138903 138902 138901 138899 138897 138895 138893 138890 138887
          138883 138880 138875 138871 138866 138861 138855 138849 138843 138836 138829 138822
          138814 138807 138799 138791 138783 138775 138766 138758 138749 138740 138732 138723
          138714 138705 138696 138687 138678 138669 138660 138651 138642 138633 138624 138615
          138606 138597 138588 138578 138569 138560 138551 138542 138532 138523 138514 138505
          138495 138486 138477 138467 138458 138448 138439 138430 138420 138410 138400 138391
          138381 138370 138360 138349 138337 138326 138313 138299 138285 138269 138251 138231
          138209 138183 138153 138119 138079 138032 137977 137913 137838 137752 137652 137539
          137410 137266 137107 136931 136739 136531 136309 136073 135822 135560 135285 134999
          134703 134397 134082 133758 133427 133089 132744 132392 132035 131671 131303 130930
          130552 130170 129783 129391 128976 128514 128007 127486 126978 119620 120069 120654
          121255 121849 122438 123021 123597 124167 124729 125284 125829 126364 126889 127402
          127904 128396 128889 129397 129908 130412 130913 131415 131925 132471 133064 133769
          134594 135110 135517 135850 136090 136226 136248 136151 135923 135569 135215 134921
          134669 134461 134274 134097 133928 133766 133610 133459 133313 133172 133034 132901
          132771 132644 132520 132398 132280 132163 132049 131938 131828 131721 131615 131512
          131410 131310 131211 131115 131020 130926 130834 130743 130654 130566 130479 130394
          130311 130228 130147 130068 129990 129913 129837 129763 129691 129621 129551 129484
          129420 129361 129307 129260 129220 129187 129161 129142 129128 129117 129110 129105
          129101 129099 129098 129097 129096 129096 129096 129096 129096 129096 129097 129097
          129097 129098 129098 129098 129098 129098 129099 129099 129099 129098 129098 129098
          129097 129097 129096 129095 129093 129092 129090 129088 129085 129083 129079 129076
          129072 129068 129063 129058 129053 129047 129041 129035 129028 129022 129014 129007