<?xml version="1.0"?>
<VTKFile type="UnstructuredGrid" version="0.1" byte_order="LittleEndian">
  <UnstructuredGrid>
    <Piece NumberOfCells="150" NumberOfPoints="204">
      <PointData Scalars="pressure_w">
        <DataArray type="Float32" Name="pressure_w" NumberOfComponents="1" format="ascii">
          96939.2 95868.5 96918 95823.7 94776.1 94733.1 93730.1 93687.4 92750.8 92708.5 91854.8 91813
          91051.8 91010.2 90346.8 90305.5 89739.8 89698.7 89226.9 89186 88799.8 88759.1 88449 88408.4
          88164.4 88123.9 87936 87895.6 87754.5 87714.2 87611.6 87571.3 87499.8 87459.6 87413 87372.9
          87346.1 87306 87294.7 87254.6 87255.5 87215.4 87225.7 87185.6 87203.1 87163 87186 87145.9
          87173.2 87133.1 87163.6 87123.5 87156.4 87116.3 87151 87110.9 87147 87106.9 87144 87103.9
          87141.8 87101.7 87140.2 87100.1 87138.9 87098.9 87138 87098 87137.4 87097.3 87136.9 87096.8
          87136.5 87096.5 87136.3 87096.2 87136.1 87096 87135.9 87095.9 87135.8 87095.8 87135.8 87095.7
          87135.7 87095.7 87135.7 87095.6 87135.7 87095.6 87135.6 87095.6 87135.6 87095.6 87135.6 87095.6
          87135.6 87095.6 87136.9 87095.7 87100.7 87081.4 96904.6 95780 94689.9 93644.7 92666.2 91771.3
          90968.7 90264.2 89657.4 89145.1 88718.4 88367.9 88083.5 87855.3 87673.9 87531.1 87419.4 87332.7
          87265.8 87214.5 87175.3 87145.5 87122.9 87105.9 87093.1 87083.5 87076.3 87070.9 87066.9 87063.9
          87061.7 87060.1 87058.9 87058 87057.3 87056.8 87056.4 87056.2 87056 87055.9 87055.8 87055.7
          87055.6 87055.6 87055.6 87055.6 87055.5 87055.5 87055.5 87055.4 87069.7 96884.1 95735.2 94647
          93602 92623.9 91730.1 90707.6 90003.5 89615.9 89104.2 88677.7 88327.3 88043.1 87814.9 87633.7
          87490.9 87379.2 87292.6 87225.7 87174.4 87135.2 87105.4 87082.9 87065.8 87053 87043.4 87036.2
          87030.9 87026.9 87023.9 87021.7 87020 87018.8 87017.9 87017.3 87016.8 87016.4 87016.2 87016
          87015.8 87015.7 87015.7 87015.6 87015.6 87015.5 87015.5 87015.5 87015.5 87015.6 87014.2 87050.6
        </DataArray>
        <DataArray type="Float32" Name="pressure_n" NumberOfComponents="1" format="ascii">
          96939.2 95868.5 96918 95823.7 94776.1 94733.1 93730.1 93687.4 92750.8 92708.5 91854.8 91813
          91051.8 91010.2 90346.8 90305.5 89739.8 89698.7 89226.9 89186 88799.8 88759.1 88449 88408.4
          88164.4 88123.9 87936 87895.6 87754.5 87714.2 87611.6 87571.3 87499.8 87459.6 87413 87372.9
          87346.1 87306 87294.7 87254.6 87255.5 87215.4 87225.7 87185.6 87203.1 87163 87186 87145.9
          87173.2 87133.1 87163.6 87123.5 87156.4 87116.3 87151 87110.9 87147 87106.9 87144 87103.9
          87141.8 87101.7 87140.2 87100.1 87138.9 87098.9 87138 87098 87137.4 87097.3 87136.9 87096.8
          87136.5 87096.5 87136.3 87096.2 87136.1 87096 87135.9 87095.9 87135.8 87095.8 87135.8 87095.7
          87135.7 87095.7 87135.7 87095.6 87135.7 87095.6 87135.6 87095.6 87135.6 87095.6 87135.6 87095.6
          87135.6 87095.6 87136.9 87095.7 87100.7 87081.4 96904.6 95780 94689.9 93644.7 92666.2 91771.3
          90968.7 90264.2 89657.4 89145.1 88718.4 88367.9 88083.5 87855.3 87673.9 87531.1 87419.4 87332.7
          87265.8 87214.5 87175.3 87145.5 87122.9 87105.9 87093.1 87083.5 87076.3 87070.9 87066.9 87063.9
          87061.7 87060.1 87058.9 87058 87057.3 87056.8 87056.4 87056.2 87056 87055.9 87055.8 87055.7
          87055.6 87055.6 87055.6 87055.6 87055.5 87055.5 87055.5 87055.4 87069.7 96884.1 95735.2 94647
          93602 92623.9 91730.1 90936.1 90232 89615.9 89104.2 88677.7 88327.3 88043.1 87814.9 87633.7
          87490.9 87379.2 87292.6 87225.7 87174.4 87135.2 87105.4 87082.9 87065.8 87053 87043.4 87036.2
          87030.9 87026.9 87023.9 87021.7 87020 87018.8 87017.9 87017.3 87016.8 87016.4 87016.2 87016
          87015.8 87015.7 87015.7 87015.6 87015.6 87015.5 87015.5 87015.5 87015.5 87015.6 87014.2 87050.6
        </DataArray>
        <DataArray type="Float32" Name="pressure_g" NumberOfComponents="1" format="ascii">
          109864 108793 109843 108748 107701 107658 106655 106612 105675 105633 104779 104737
          103976 103935 103271 103230 102664 102623 102151 102110 101724 101684 101374 101333
          101089 101048 100861 100820 100679 100639 100536 100496 100424 100384 100338 100297
          100271 100230 100219 100179 100180 100140 100150 100110 100128 100088 100111 100070
          100098 100058 100088 100048 100081 100041 100076 100035 100072 100031 100069 100028
          100066 100026 100065 100025 100063 100023 100063 100023 100062 100022 100061 100021
          100061 100021 100061 100021 100061 100021 100060 100020 100060 100020 100060 100020
          100060 100020 100060 100020 100060 100020 100060 100020 100060 100020 100060 100020
          100060 100020 100061 100020 100025 100006 109829 108704 107614 106569 105591 104696
          103893 103189 102582 102070 101643 101292 101008 100780 100598 100456 100344 100257
          100190 100139 100100 100070 100047 100030 100018 100008 100001 99995.4 99991.4 99988.4
          99986.2 99984.6 99983.4 99982.5 99981.8 99981.3 99981 99980.7 99980.5 99980.4 99980.3 99980.2
          99980.2 99980.1 99980.1 99980.1 99980.1 99980.1 99980 99979.9 99994.2 109809 108660 107571
          106526 105548 104654 103852 103148 102540 102029 101602 101252 100968 100739 100558
          100415 100304 100217 100150 100099 100060 100030 100007 99990.4 99977.6 99967.9 99960.8
          99955.4 99951.4 99948.4 99946.2 99944.6 99943.4 99942.5 99941.8 99941.3 99941 99940.7 99940.5
          99940.4 99940.3 99940.2 99940.1 99940.1 99940.1 99940.1 99940.1 99940 99940.1 99938.8 99975.1
        </DataArray>
        <DataArray type="Float32" Name="density_w" NumberOfComponents="1" format="ascii">
          999.71 999.709 999.71 999.709 999.708 999.708 999.708 999.708 999.707 999.707 999.707 999.707
          999.706 999.706 999.706 999.706 999.706 999.706 999.705 999.705 999.705 999.705 999.705 999.705
          999.705 999.705 999.705 999.705 999.704 999.704 999.704 999.704 999.704 999.704 999.704 999.704
          999.704 999.704 999.704 999.704 999.704 999.704 999.704 999.704 999.704 999.704 999.704 999.704
          999.704 999.704 999.704 999.704 999.704 999.704 999.704 999.704 999.704 999.704 999.704 999.704
          999.704 999.704 999.704 999.704 999.704 999.704 999.704 999.704 999.704 999.704 999.704 999.704
          999.704 999.704 999.704 999.704 999.704 999.704 999.704 999.704 999.704 999.704 999.704 999.704
          999.704 999.704 999.704 999.704 999.704 999.704 999.704 999.704 999.704 999.704 999.704 999.704
          999.704 999.704 999.704 999.704 999.704 999.704 999.71 999.709 999.708 999.708 999.707 999.707
          999.706 999.706 999.706 999.705 999.705 999.705 999.705 999.704 999.704 999.704 999.704 999.704
          999.704 999.704 999.704 999.704 999.704 999.704 999.704 999.704 999.704 999.704 999.704 999.704
          999.704 999.704 999.704 999.704 999.704 999.704 999.704 999.704 999.704 999.704 999.704 999.704
          999.704 999.704 999.704 999.704 999.704 999.704 999.704 999.704 999.704 999.71 999.709 999.708
          999.708 999.707 999.726 999.725 999.725 999.707 999.705 999.705 999.705 999.705 999.704 999.704
          999.704 999.704 999.704 999.704 999.704 999.704 999.704 999.704 999.704 999.704 999.704 999.704
          999.704 999.704 999.704 999.704 999.704 999.704 999.704 999.704 999.704 999.704 999.704 999.704
          999.704 999.704 999.704 999.704 999.704 999.704 999.704 999.704 999.704 999.704 999.704 999.704
        </DataArray>
        <DataArray type="Float32" Name="density_n" NumberOfComponents="1" format="ascii">
          878.771 878.771 878.771 878.771 878.771 878.771 878.771 878.771 878.771 878.771 878.771 878.771
          878.771 878.771 878.771 878.771 878.771 878.771 878.771 878.771 878.771 878.771 878.771 878.771
          878.771 878.771 878.771 878.771 878.771 878.771 878.771 878.771 878.771 878.771 878.771 878.771
          878.771 878.771 878.771 878.771 878.771 878.771 878.771 878.771 878.771 878.771 878.771 878.771
          878.771 878.771 878.771 878.771 878.771 878.771 878.771 878.771 878.771 878.771 878.771 878.771
          878.771 878.771 878.771 878.771 878.771 878.771 878.771 878.771 878.771 878.771 878.771 878.771
          878.771 878.771 878.771 878.771 878.771 878.771 878.771 878.771 878.771 878.771 878.771 878.771
          878.771 878.771 878.771 878.771 878.771 878.771 878.771 878.771 878.771 878.771 878.771 878.771
          878.771 878.771 878.771 878.771 878.771 878.771 878.771 878.771 878.771 878.771 878.771 878.771
          878.771 878.771 878.771 878.771 878.771 878.771 878.771 878.771 878.771 878.771 878.771 878.771
          878.771 878.771 878.771 878.771 878.771 878.771 878.771 878.771 878.771 878.771 878.771 878.771
          878.771 878.771 878.771 878.771 878.771 878.771 878.771 878.771 878.771 878.771 878.771 878.771
          878.771 878.771 878.771 878.771 878.771 878.771 878.771 878.771 878.771 878.771 878.771 878.771
          878.771 878.771 878.771 878.771 878.771 878.771 878.771 878.771 878.771 878.771 878.771 878.771
          878.771 878.771 878.771 878.771 878.771 878.771 878.771 878.771 878.771 878.771 878.771 878.771
          878.771 878.771 878.771 878.771 878.771 878.771 878.771 878.771 878.771 878.771 878.771 878.771
          878.771 878.771 878.771 878.771 878.771 878.771 878.771 878.771 878.771 878.771 878.771 878.771
        </DataArray>
        <DataArray type="Float32" Name="density_g" NumberOfComponents="1" format="ascii">
          1.34575 1.33258 1.34549 1.33203 1.31914 1.31862 1.30628 1.30575 1.29423 1.29371 1.28321 1.28269
          1.27333 1.27282 1.26466 1.26415 1.25719 1.25669 1.25088 1.25038 1.24563 1.24513 1.24131 1.24082
          1.23781 1.23732 1.235 1.23451 1.23277 1.23228 1.23101 1.23052 1.22964 1.22914 1.22857 1.22808
          1.22775 1.22725 1.22712 1.22662 1.22663 1.22614 1.22627 1.22577 1.22599 1.22549 1.22578 1.22529
          1.22562 1.22513 1.2255 1.22501 1.22541 1.22492 1.22535 1.22485 1.2253 1.2248 1.22526 1.22477
          1.22523 1.22474 1.22521 1.22472 1.2252 1.22471 1.22519 1.2247 1.22518 1.22469 1.22517 1.22468
          1.22517 1.22468 1.22517 1.22467 1.22516 1.22467 1.22516 1.22467 1.22516 1.22467 1.22516 1.22467
          1.22516 1.22467 1.22516 1.22467 1.22516 1.22467 1.22516 1.22467 1.22516 1.22467 1.22516 1.22467
          1.22516 1.22467 1.22517 1.22467 1.22473 1.22449 1.34533 1.33149 1.31808 1.30523 1.29319 1.28219
          1.27231 1.26365 1.25618 1.24988 1.24463 1.24032 1.23682 1.23401 1.23178 1.23002 1.22865 1.22758
          1.22676 1.22613 1.22565 1.22528 1.225 1.22479 1.22463 1.22452 1.22443 1.22436 1.22431 1.22428
          1.22425 1.22423 1.22421 1.2242 1.22419 1.22419 1.22418 1.22418 1.22418 1.22418 1.22418 1.22417
          1.22417 1.22417 1.22417 1.22417 1.22417 1.22417 1.22417 1.22417 1.22435 1.34508 1.33094 1.31756
          1.3047 1.29267 1.28603 1.27615 1.26749 1.25599 1.24939 1.24413 1.23982 1.23632 1.23351 1.23128
          1.22953 1.22815 1.22709 1.22627 1.22564 1.22515 1.22479 1.22451 1.2243 1.22414 1.22402 1.22394
          1.22387 1.22382 1.22378 1.22376 1.22374 1.22372 1.22371 1.2237 1.2237 1.22369 1.22369 1.22369
          1.22368 1.22368 1.22368 1.22368 1.22368 1.22368 1.22368 1.22368 1.22368 1.22368 1.22366 1.22411
        </DataArray>
        <DataArray type="Float32" Name="saturation_w" NumberOfComponents="1" format="ascii">
          0.119993 0.12 0.119992 0.12 0.12 0.12 0.12 0.12 0.12 0.12 0.12 0.12
          0.12 0.12 0.12 0.12 0.12 0.12 0.12 0.12 0.12 0.12 0.12 0.12
          0.12 0.12 0.12 0.12 0.12 0.12 0.12 0.12 0.12 0.12 0.12 0.12
          0.12 0.12 0.12 0.12 0.12 0.12 0.12 0.12 0.12 0.12 0.12 0.12
          0.12 0.12 0.12 0.12 0.12 0.12 0.12 0.12 0.12 0.12 0.12 0.12
          0.12 0.12 0.12 0.12 0.12 0.12 0.12 0.12 0.12 0.12 0.12 0.12
          0.12 0.12 0.12 0.12 0.12 0.12 0.12 0.12 0.12 0.12 0.12 0.12
          0.12 0.12 0.12 0.12 0.12 0.12 0.12 0.12 0.12 0.12 0.12 0.12
          0.12 0.12 0.12 0.12 0.12 0.12 0.119992 0.12 0.12 0.12 0.12 0.12
          0.12 0.12 0.12 0.12 0.12 0.12 0.12 0.12 0.12 0.12 0.12 0.12
          0.12 0.12 0.12 0.12 0.12 0.12 0.12 0.12 0.12 0.12 0.12 0.12
          0.12 0.12 0.12 0.12 0.12 0.12 0.12 0.12 0.12 0.12 0.12 0.12
          0.12 0.12 0.12 0.12 0.12 0.12 0.12 0.12 0.12 0.119991 0.12 0.12
          0.12 0.12 0.120001 0.120001 0.120001 0.12 0.12 0.12 0.12 0.12 0.12 0.12
          0.12 0.12 0.12 0.12 0.12 0.12 0.12 0.12 0.12 0.12 0.12 0.12
          0.12 0.12 0.12 0.12 0.12 0.12 0.12 0.12 0.12 0.12 0.12 0.12
          0.12 0.12 0.12 0.12 0.12 0.12 0.12 0.12 0.12 0.12 0.12 0.119999
        </DataArray>
        <DataArray type="Float32" Name="saturation_n" NumberOfComponents="1" format="ascii">
          0 0 0 0 0 0 0 0 0 0 0 0
          0 0 0 0 0 0 0 0 0 0 0 0
          0 0 0 0 0 0 0 0 0 0 0 0
          0 0 0 0 0 0 0 0 0 0 0 0
          0 0 0 0 0 0 0 0 0 0 0 0
          0 0 0 0 0 0 0 0 0 0 0 0
          0 0 0 0 0 0 0 0 0 0 0 0
          0 0 0 0 0 0 0 0 0 0 0 0
          0 0 0 0 0 0 0 0 0 0 0 0
          0 0 0 0 0 0 0 0 0 0 0 0
          0 0 0 0 0 0 0 0 0 0 0 0
          0 0 0 0 0 0 0 0 0 0 0 0
          0 0 0 0 0 0 0 0 0 0 0 0
          0 0 0.000604709 0.00122063 0.00122059 0 0 0 0 0 0 0
          0 0 0 0 0 0 0 0 0 0 0 0
          0 0 0 0 0 0 0 0 0 0 0 0
          0 0 0 0 0 0 0 0 0 0 0 0
        </DataArray>
        <DataArray type="Float32" Name="saturation_g" NumberOfComponents="1" format="ascii">
          0.880007 0.88 0.880008 0.88 0.88 0.88 0.88 0.88 0.88 0.88 0.88 0.88
          0.88 0.88 0.88 0.88 0.88 0.88 0.88 0.88 0.88 0.88 0.88 0.88
          0.88 0.88 0.88 0.88 0.88 0.88 0.88 0.88 0.88 0.88 0.88 0.88
          0.88 0.88 0.88 0.88 0.88 0.88 0.88 0.88 0.88 0.88 0.88 0.88
          0.88 0.88 0.88 0.88 0.88 0.88 0.88 0.88 0.88 0.88 0.88 0.88
          0.88 0.88 0.88 0.88 0.88 0.88 0.88 0.88 0.88 0.88 0.88 0.88
          0.88 0.88 0.88 0.88 0.88 0.88 0.88 0.88 0.88 0.88 0.88 0.88
          0.88 0.88 0.88 0.88 0.88 0.88 0.88 0.88 0.88 0.88 0.88 0.88
          0.88 0.88 0.88 0.88 0.88 0.88 0.880008 0.88 0.88 0.88 0.88 0.88
          0.88 0.88 0.88 0.88 0.88 0.88 0.88 0.88 0.88 0.88 0.88 0.88
          0.88 0.88 0.88 0.88 0.88 0.88 0.88 0.88 0.88 0.88 0.88 0.88
          0.88 0.88 0.88 0.88 0.88 0.88 0.88 0.88 0.88 0.88 0.88 0.88
          0.88 0.88 0.88 0.88 0.88 0.88 0.88 0.88 0.88 0.880009 0.88 0.88
          0.88 0.88 0.879395 0.878779 0.878779 0.88 0.88 0.88 0.88 0.88 0.88 0.88
          0.88 0.88 0.88 0.88 0.88 0.88 0.88 0.88 0.88 0.88 0.88 0.88
          0.88 0.88 0.88 0.88 0.88 0.88 0.88 0.88 0.88 0.88 0.88 0.88
          0.88 0.88 0.88 0.88 0.88 0.88 0.88 0.88 0.88 0.88 0.88 0.880001
        </DataArray>
        <DataArray type="Float32" Name="relativePerm_w" NumberOfComponents="1" format="ascii">
          0 1.29776e-21 0 1.24963e-21 1.22827e-21 1.2052e-21 9.32471e-22 9.12055e-22 6.39752e-22 6.2386e-22 4.09556e-22 3.97789e-22
          2.47517e-22 2.39087e-22 1.42484e-22 1.3668e-22 7.86174e-23 7.47316e-23 4.18576e-23 3.93357e-23 2.15971e-23 1.9995e-23 1.08545e-23 9.85704e-24
          5.34346e-24 4.73274e-24 2.5914e-24 2.22236e-24 1.24577e-24 1.02486e-24 5.97679e-25 4.66159e-25 2.8831e-25 2.10088e-25 1.40981e-25 9.42795e-26
          7.05051e-26 4.23627e-26 3.63974e-26 1.91775e-26 1.95769e-26 8.80907e-27 1.10652e-26 4.13852e-27 6.6189e-27 2.00606e-27 4.2097e-27 1.01246e-27
          2.85193e-27 5.36925e-28 2.05559e-27 3.01593e-28 1.57e-27 1.8053e-28 1.26327e-27 1.15565e-28 1.0633e-27 7.91235e-29 9.29482e-28 5.77805e-29
          8.37905e-28 4.4749e-29 7.74201e-28 3.65093e-29 7.29194e-28 3.11259e-29 6.97134e-28 2.75123e-29 6.74088e-28 2.50432e-29 6.57481e-28 2.33185e-29
          6.45414e-28 2.21079e-29 6.36648e-28 2.12454e-29 6.30312e-28 2.06272e-29 6.25687e-28 2.01868e-29 6.22395e-28 1.98718e-29 6.20001e-28 1.9646e-29
          6.18338e-28 1.94876e-29 6.17171e-28 1.93818e-29 6.16435e-28 1.93097e-29 6.15953e-28 1.92641e-29 6.15704e-28 1.92446e-29 6.15996e-28 1.92178e-29
          6.13617e-28 1.92838e-29 6.85841e-28 2.14604e-29 4.7605e-29 6.47313e-31 0 1.19476e-21 1.18163e-21 8.92125e-22 6.08245e-22 3.89032e-22
          2.32403e-22 1.31968e-22 7.09997e-23 3.69219e-23 1.84753e-23 8.92355e-24 4.17121e-24 1.89077e-24 8.32248e-25 3.55887e-25 1.47754e-25 5.94332e-26
          2.30661e-26 8.57512e-27 3.01742e-27 9.8502e-28 2.88027e-28 7.05789e-29 1.25051e-29 1.02457e-30 6.76219e-34 0 0 0
          0 0 0 0 0 0 0 0 0 0 0 0
          0 0 0 0 0 0 0 0 0 0 1.14701e-21 1.15925e-21
          8.7228e-22 5.92858e-22 1.46964e-20 1.36891e-20 1.18228e-20 1.50498e-22 3.63014e-23 1.70657e-23 8.0519e-24 3.6565e-24 1.59443e-24 6.65835e-25
          2.64856e-25 9.93893e-26 3.46024e-26 1.08531e-26 2.90278e-27 5.89034e-28 6.6e-29 7.5906e-31 0 0 0 0
          0 0 0 0 0 0 0 0 0 0 0 0
          0 0 0 0 0 0 0 0 0 0 0 0
        </DataArray>
        <DataArray type="Float32" Name="relativePerm_n" NumberOfComponents="1" format="ascii">
          0 0 0 0 0 0 0 0 0 0 0 0
          0 0 0 0 0 0 0 0 0 0 0 0
          0 0 0 0 0 0 0 0 0 0 0 0
          0 0 0 0 0 0 0 0 0 0 0 0
          0 0 0 0 0 0 0 0 0 0 0 0
          0 0 0 0 0 0 0 0 0 0 0 0
          0 0 0 0 0 0 0 0 0 0 0 0
          0 0 0 0 0 0 0 0 0 0 0 0
          0 0 0 0 0 0 0 0 0 0 0 0
          0 0 0 0 0 0 0 0 0 0 0 0
          0 0 0 0 0 0 0 0 0 0 0 0
          0 0 0 0 0 0 0 0 0 0 0 0
          0 0 0 0 0 0 0 0 0 0 0 0
          0 0 5.43483e-11 5.0191e-10 5.01834e-10 0 0 0 0 0 0 0
          0 0 0 0 0 0 0 0 0 0 0 0
          0 0 0 0 0 0 0 0 0 0 0 0
          0 0 0 0 0 0 0 0 0 0 0 0
        </DataArray>
        <DataArray type="Float32" Name="relativePerm_g" NumberOfComponents="1" format="ascii">
          0.907723 0.907713 0.907723 0.907713 0.907713 0.907713 0.907714 0.907714 0.907714 0.907714 0.907714 0.907714
          0.907714 0.907714 0.907714 0.907714 0.907714 0.907714 0.907714 0.907714 0.907714 0.907714 0.907714 0.907714
          0.907714 0.907714 0.907714 0.907714 0.907714 0.907714 0.907714 0.907714 0.907714 0.907714 0.907714 0.907714
          0.907714 0.907714 0.907714 0.907714 0.907714 0.907714 0.907714 0.907714 0.907714 0.907714 0.907714 0.907714
          0.907714 0.907714 0.907714 0.907714 0.907714 0.907714 0.907714 0.907714 0.907714 0.907714 0.907714 0.907714
          0.907714 0.907714 0.907714 0.907714 0.907714 0.907714 0.907714 0.907714 0.907714 0.907714 0.907714 0.907714
          0.907714 0.907714 0.907714 0.907714 0.907714 0.907714 0.907714 0.907714 0.907714 0.907714 0.907714 0.907714
          0.907714 0.907714 0.907714 0.907714 0.907714 0.907714 0.907714 0.907714 0.907714 0.907714 0.907714 0.907714
          0.907714 0.907714 0.907714 0.907714 0.907714 0.907714 0.907724 0.907713 0.907713 0.907714 0.907714 0.907714
          0.907714 0.907714 0.907714 0.907714 0.907714 0.907714 0.907714 0.907714 0.907714 0.907714 0.907714 0.907714
          0.907714 0.907714 0.907714 0.907714 0.907714 0.907714 0.907714 0.907714 0.907714 0.907714 0.907714 0.907714
          0.907714 0.907714 0.907714 0.907714 0.907714 0.907714 0.907714 0.907714 0.907714 0.907714 0.907714 0.907714
          0.907714 0.907714 0.907714 0.907714 0.907714 0.907714 0.907714 0.907714 0.907714 0.907725 0.907713 0.907713
          0.907714 0.907714 0.90697 0.906212 0.906212 0.907714 0.907714 0.907714 0.907714 0.907714 0.907714 0.907714
          0.907714 0.907714 0.907714 0.907714 0.907714 0.907714 0.907714 0.907714 0.907714 0.907714 0.907714 0.907714
          0.907714 0.907714 0.907714 0.907714 0.907714 0.907714 0.907714 0.907714 0.907714 0.907714 0.907714 0.907714
          0.907714 0.907714 0.907714 0.907714 0.907714 0.907714 0.907714 0.907714 0.907714 0.907714 0.907714 0.907715
        </DataArray>
        <DataArray type="Float32" Name="porosity" NumberOfComponents="1" format="ascii">
          0.4 0.4 0.4 0.4 0.4 0.4 0.4 0.4 0.4 0.4 0.4 0.4
          0.4 0.4 0.4 0.4 0.4 0.4 0.4 0.4 0.4 0.4 0.4 0.4
          0.4 0.4 0.4 0.4 0.4 0.4 0.4 0.4 0.4 0.4 0.4 0.4
          0.4 0.4 0.4 0.4 0.4 0.4 0.4 0.4 0.4 0.4 0.4 0.4
          0.4 0.4 0.4 0.4 0.4 0.4 0.4 0.4 0.4 0.4 0.4 0.4
          0.4 0.4 0.4 0.4 0.4 0.4 0.4 0.4 0.4 0.4 0.4 0.4
          0.4 0.4 0.4 0.4 0.4 0.4 0.4 0.4 0.4 0.4 0.4 0.4
          0.4 0.4 0.4 0.4 0.4 0.4 0.4 0.4 0.4 0.4 0.4 0.4
          0.4 0.4 0.4 0.4 0.4 0.4 0.4 0.4 0.4 0.4 0.4 0.4
          0.4 0.4 0.4 0.4 0.4 0.4 0.4 0.4 0.4 0.4 0.4 0.4
          0.4 0.4 0.4 0.4 0.4 0.4 0.4 0.4 0.4 0.4 0.4 0.4
          0.4 0.4 0.4 0.4 0.4 0.4 0.4 0.4 0.4 0.4 0.4 0.4
          0.4 0.4 0.4 0.4 0.4 0.4 0.4 0.4 0.4 0.4 0.4 0.4
          0.4 0.4 0.4 0.4 0.4 0.4 0.4 0.4 0.4 0.4 0.4 0.4
          0.4 0.4 0.4 0.4 0.4 0.4 0.4 0.4 0.4 0.4 0.4 0.4
          0.4 0.4 0.4 0.4 0.4 0.4 0.4 0.4 0.4 0.4 0.4 0.4
          0.4 0.4 0.4 0.4 0.4 0.4 0.4 0.4 0.4 0.4 0.4 0.4
        </DataArray>
        <DataArray type="Float32" Name="moleFrac_w^H2O" NumberOfComponents="1" format="ascii">
          0.999984 0.999984 0.999984 0.999984 0.999984 0.999984 0.999984 0.999984 0.999984 0.999984 0.999984 0.999984
          0.999984 0.999984 0.999985 0.999985 0.999985 0.999985 0.999985 0.999985 0.999985 0.999985 0.999985 0.999985
          0.999985 0.999985 0.999985 0.999985 0.999985 0.999985 0.999985 0.999985 0.999985 0.999985 0.999985 0.999985
          0.999985 0.999985 0.999985 0.999985 0.999985 0.999985 0.999985 0.999985 0.999985 0.999985 0.999985 0.999985
          0.999985 0.999985 0.999985 0.999985 0.999985 0.999985 0.999985 0.999985 0.999985 0.999985 0.999985 0.999985
          0.999985 0.999985 0.999985 0.999985 0.999985 0.999985 0.999985 0.999985 0.999985 0.999985 0.999985 0.999985
          0.999985 0.999985 0.999985 0.999985 0.999985 0.999985 0.999985 0.999985 0.999985 0.999985 0.999985 0.999985
          0.999985 0.999985 0.999985 0.999985 0.999985 0.999985 0.999985 0.999985 0.999985 0.999985 0.999985 0.999985
          0.999985 0.999985 0.999985 0.999985 0.999985 0.999985 0.999984 0.999984 0.999984 0.999984 0.999984 0.999984
          0.999984 0.999985 0.999985 0.999985 0.999985 0.999985 0.999985 0.999985 0.999985 0.999985 0.999985 0.999985
          0.999985 0.999985 0.999985 0.999985 0.999985 0.999985 0.999985 0.999985 0.999985 0.999985 0.999985 0.999985
          0.999985 0.999985 0.999985 0.999985 0.999985 0.999985 0.999985 0.999985 0.999985 0.999985 0.999985 0.999985
          0.999985 0.999985 0.999985 0.999985 0.999985 0.999985 0.999985 0.999985 0.999985 0.999984 0.999984 0.999984
          0.999984 0.999984 0.999981 0.999981 0.999981 0.999984 0.999985 0.999985 0.999985 0.999985 0.999985 0.999985
          0.999985 0.999985 0.999985 0.999985 0.999985 0.999985 0.999985 0.999985 0.999985 0.999985 0.999985 0.999985
          0.999985 0.999985 0.999985 0.999985 0.999985 0.999985 0.999985 0.999985 0.999985 0.999985 0.999985 0.999985
          0.999985 0.999985 0.999985 0.999985 0.999985 0.999985 0.999985 0.999985 0.999985 0.999985 0.999985 0.999985
        </DataArray>
        <DataArray type="Float32" Name="moleFrac_w^mesitylene" NumberOfComponents="1" format="ascii">
          -7.37561e-19 -7.30372e-19 -1.10613e-18 -1.09511e-18 -3.61519e-19 -1.08412e-18 7.16016e-19 -1.07359e-18 1.7736e-18 4.60953e-18 3.17949e-16 1.21174e-12
          4.19519e-16 1.16772e-12 3.34519e-16 8.8746e-13 2.61907e-17 6.22747e-14 2.74314e-18 2.68e-15 -1.02438e-18 8.43066e-17 -1.02084e-18 2.72116e-18
          1.01798e-18 -3.3919e-19 -6.77119e-19 0 0 0 1.68735e-18 3.37335e-19 1.34838e-18 0 6.73608e-19 1.01001e-18
          -1.34632e-18 3.36444e-19 -6.72813e-19 1.00882e-18 1.3451e-18 -1.00842e-18 -1.00852e-18 -1.34416e-18 2.01659e-18 -1.00789e-18 0 1.00772e-18
          1.008e-18 -1.00759e-18 -2.0158e-18 -1.0075e-18 -1.67971e-18 -2.35065e-18 -1.00777e-18 -6.71579e-19 -6.71822e-19 -6.71553e-19 -3.35901e-19 -1.0073e-18
          -3.35893e-19 -1.67879e-18 2.6871e-18 -6.71507e-19 -1.00765e-18 -6.71499e-19 -1.00764e-18 -1.34299e-18 0 1.34298e-18 6.71754e-19 -3.35742e-19
          6.71751e-19 3.35741e-19 1.67937e-18 -1.00722e-18 3.35874e-19 -1.00722e-18 1.34349e-18 -1.00722e-18 1.00762e-18 3.35739e-19 -1.67937e-18 -6.71477e-19
          -1.00762e-18 2.01443e-18 1.00762e-18 6.71477e-19 1.00762e-18 0 -6.71745e-19 -1.00721e-18 -1.00762e-18 1.67869e-18 1.00762e-18 -6.71476e-19
          0 0 -1.67938e-18 1.00722e-18 0 6.71381e-19 0 -7.29778e-19 1.08369e-18 7.15443e-19 1.74688e-14 3.26326e-09
          2.72481e-09 2.37501e-09 1.63796e-10 7.01765e-12 2.1574e-13 5.13515e-15 9.62914e-17 2.02973e-18 -2.02608e-18 3.372e-19 -6.7365e-19 0
          -6.72619e-19 -6.72275e-19 -1.34402e-18 -1.00772e-18 1.00749e-18 -2.01464e-18 1.00719e-18 0 1.00702e-18 3.35655e-18 1.00693e-18 1.67816e-18
          1.3425e-18 1.00686e-18 -2.3493e-18 1.34245e-18 2.01366e-18 6.71216e-19 2.34925e-18 2.34924e-18 -6.71211e-19 6.7121e-19 2.34923e-18 -3.35604e-19
          6.71208e-19 1.34242e-18 -6.71208e-19 1.00681e-18 -2.34923e-18 0 0 1.00681e-18 -1.00695e-18 -7.37191e-19 3.64738e-19 -2.5276e-18
          -1.78789e-18 4.0757e-11 3.40289e-06 3.40292e-06 3.40294e-06 2.51289e-07 1.0685e-08 3.26414e-10 7.69415e-12 1.4347e-13 2.12901e-15 2.32906e-17
          -6.7413e-19 -3.3669e-19 6.72799e-19 -6.7235e-19 1.00801e-18 4.03046e-18 -1.34309e-18 -3.02126e-18 1.00692e-18 -6.71191e-19 -1.00669e-18 -2.01323e-18
          -1.6776e-18 -1.00652e-18 -3.35498e-19 -3.3549e-19 -6.70969e-19 1.34192e-18 -1.00643e-18 -1.00643e-18 -2.34832e-18 -1.00642e-18 -2.3483e-18 -1.00641e-18
          -1.34188e-18 1.00641e-18 -6.7094e-19 -1.67735e-18 -6.70939e-19 1.00641e-18 -6.70939e-19 -6.70939e-19 1.67735e-18 -6.70939e-19 1.0064e-18 -1.67794e-18
        </DataArray>
        <DataArray type="Float32" Name="moleFrac_w^Air" NumberOfComponents="1" format="ascii">
          1.64472e-05 1.62851e-05 1.6444e-05 1.62784e-05 1.61197e-05 1.61132e-05 1.59614e-05 1.59549e-05 1.58131e-05 1.58067e-05 1.56775e-05 1.56711e-05
          1.55559e-05 1.55496e-05 1.54492e-05 1.54429e-05 1.53573e-05 1.5351e-05 1.52796e-05 1.52734e-05 1.5215e-05 1.52088e-05 1.51618e-05 1.51557e-05
          1.51188e-05 1.51126e-05 1.50842e-05 1.50781e-05 1.50567e-05 1.50506e-05 1.50351e-05 1.5029e-05 1.50181e-05 1.5012e-05 1.5005e-05 1.49989e-05
          1.49949e-05 1.49888e-05 1.49871e-05 1.4981e-05 1.49811e-05 1.49751e-05 1.49766e-05 1.49706e-05 1.49732e-05 1.49671e-05 1.49706e-05 1.49646e-05
          1.49687e-05 1.49626e-05 1.49672e-05 1.49612e-05 1.49661e-05 1.49601e-05 1.49653e-05 1.49593e-05 1.49647e-05 1.49587e-05 1.49643e-05 1.49582e-05
          1.49639e-05 1.49579e-05 1.49637e-05 1.49576e-05 1.49635e-05 1.49574e-05 1.49634e-05 1.49573e-05 1.49633e-05 1.49572e-05 1.49632e-05 1.49571e-05
          1.49631e-05 1.49571e-05 1.49631e-05 1.4957e-05 1.49631e-05 1.4957e-05 1.4963e-05 1.4957e-05 1.4963e-05 1.4957e-05 1.4963e-05 1.4957e-05
          1.4963e-05 1.4957e-05 1.4963e-05 1.49569e-05 1.4963e-05 1.49569e-05 1.4963e-05 1.49569e-05 1.4963e-05 1.49569e-05 1.4963e-05 1.49569e-05
          1.4963e-05 1.49569e-05 1.49632e-05 1.4957e-05 1.49577e-05 1.49548e-05 1.6442e-05 1.62717e-05 1.61067e-05 1.59484e-05 1.58003e-05 1.56648e-05
          1.55433e-05 1.54366e-05 1.53448e-05 1.52672e-05 1.52026e-05 1.51496e-05 1.51065e-05 1.5072e-05 1.50445e-05 1.50229e-05 1.5006e-05 1.49928e-05
          1.49827e-05 1.49749e-05 1.4969e-05 1.49645e-05 1.49611e-05 1.49585e-05 1.49566e-05 1.49551e-05 1.4954e-05 1.49532e-05 1.49526e-05 1.49521e-05
          1.49518e-05 1.49516e-05 1.49514e-05 1.49512e-05 1.49511e-05 1.49511e-05 1.4951e-05 1.4951e-05 1.49509e-05 1.49509e-05 1.49509e-05 1.49509e-05
          1.49509e-05 1.49509e-05 1.49509e-05 1.49509e-05 1.49509e-05 1.49509e-05 1.49509e-05 1.49509e-05 1.4953e-05 1.64389e-05 1.62649e-05 1.61002e-05
          1.5942e-05 1.57939e-05 1.56415e-05 1.552e-05 1.54134e-05 1.53373e-05 1.5261e-05 1.51965e-05 1.51434e-05 1.51004e-05 1.50658e-05 1.50384e-05
          1.50168e-05 1.49999e-05 1.49868e-05 1.49766e-05 1.49689e-05 1.49629e-05 1.49584e-05 1.4955e-05 1.49524e-05 1.49505e-05 1.4949e-05 1.4948e-05
          1.49471e-05 1.49465e-05 1.49461e-05 1.49457e-05 1.49455e-05 1.49453e-05 1.49452e-05 1.49451e-05 1.4945e-05 1.4945e-05 1.49449e-05 1.49449e-05
          1.49449e-05 1.49448e-05 1.49448e-05 1.49448e-05 1.49448e-05 1.49448e-05 1.49448e-05 1.49448e-05 1.49448e-05 1.49448e-05 1.49446e-05 1.49501e-05
        </DataArray>
        <DataArray type="Float32" Name="moleFrac_n^H2O" NumberOfComponents="1" format="ascii">
          1.09016e-05 1.09016e-05 1.09016e-05 1.09016e-05 1.09016e-05 1.09016e-05 1.09016e-05 1.09016e-05 1.09017e-05 1.09017e-05 1.09017e-05 1.09017e-05
          1.09017e-05 1.09017e-05 1.09017e-05 1.09017e-05 1.09017e-05 1.09017e-05 1.09017e-05 1.09017e-05 1.09017e-05 1.09017e-05 1.09017e-05 1.09017e-05
          1.09017e-05 1.09017e-05 1.09017e-05 1.09017e-05 1.09017e-05 1.09017e-05 1.09017e-05 1.09017e-05 1.09017e-05 1.09017e-05 1.09017e-05 1.09017e-05
          1.09017e-05 1.09017e-05 1.09017e-05 1.09017e-05 1.09017e-05 1.09017e-05 1.09017e-05 1.09017e-05 1.09017e-05 1.09017e-05 1.09017e-05 1.09017e-05
          1.09017e-05 1.09017e-05 1.09017e-05 1.09017e-05 1.09017e-05 1.09017e-05 1.09017e-05 1.09017e-05 1.09017e-05 1.09017e-05 1.09017e-05 1.09017e-05
          1.09017e-05 1.09017e-05 1.09017e-05 1.09017e-05 1.09017e-05 1.09017e-05 1.09017e-05 1.09017e-05 1.09017e-05 1.09017e-05 1.09017e-05 1.09017e-05
          1.09017e-05 1.09017e-05 1.09017e-05 1.09017e-05 1.09017e-05 1.09017e-05 1.09017e-05 1.09017e-05 1.09017e-05 1.09017e-05 1.09017e-05 1.09017e-05
          1.09017e-05 1.09017e-05 1.09017e-05 1.09017e-05 1.09017e-05 1.09017e-05 1.09017e-05 1.09017e-05 1.09017e-05 1.09017e-05 1.09017e-05 1.09017e-05
          1.09017e-05 1.09017e-05 1.09017e-05 1.09017e-05 1.09017e-05 1.09017e-05 1.09016e-05 1.09016e-05 1.09016e-05 1.09016e-05 1.09017e-05 1.09017e-05
          1.09017e-05 1.09017e-05 1.09017e-05 1.09017e-05 1.09017e-05 1.09017e-05 1.09017e-05 1.09017e-05 1.09017e-05 1.09017e-05 1.09017e-05 1.09017e-05