<?xml version="1.0"?>
<VTKFile type="UnstructuredGrid" version="0.1" byte_order="LittleEndian">
  <UnstructuredGrid>
    <Piece NumberOfCells="150" NumberOfPoints="204">
      <PointData Scalars="pressure_w">
        <DataArray type="Float32" Name="pressure_w" NumberOfComponents="1" format="ascii">
          96939.8 95873.3 96918.7 95828.5 94784.6 94741.6 93741.4 93698.7 92763.8 92721.5 91868.4 91826.5
          91064.8 91023.2 90358.5 90317.2 89749.6 89708.4 89234.4 89193.5 88805.1 88764.4 88452.3 88411.7
          88165.9 88125.5 87936.1 87895.7 87753.5 87713.2 87609.8 87569.6 87497.6 87457.4 87410.6 87370.4
          87343.6 87303.5 87292.3 87252.2 87253.2 87213.1 87223.6 87183.5 87201.2 87161.1 87184.4 87144.3
          87171.8 87131.7 87162.4 87122.3 87155.4 87115.3 87150.2 87110.1 87146.3 87106.2 87143.4 87103.4
          87141.3 87101.3 87139.8 87099.7 87138.6 87098.6 87137.8 87097.8 87137.2 87097.1 87136.8 87096.7
          87136.4 87096.4 87136.2 87096.1 87136 87096 87135.9 87095.8 87135.8 87095.8 87135.7 87095.7
          87135.7 87095.6 87135.7 87095.6 87135.6 87095.6 87135.6 87095.6 87135.6 87095.6 87135.6 87095.6
          87135.6 87095.6 87136.9 87095.7 87100.7 87081.4 96905.2 95784.8 94698.4 93656 92679.2 91784.9
          90981.7 90275.9 89667.1 89152.6 88723.7 88371.1 88085 87855.4 87673 87529.4 87417.2 87330.3
          87263.3 87212.1 87173 87143.4 87121.1 87104.3 87091.7 87082.3 87075.2 87070 87066.2 87063.3
          87061.2 87059.7 87058.6 87057.7 87057.1 87056.7 87056.3 87056.1 87055.9 87055.8 87055.7 87055.6
          87055.6 87055.6 87055.6 87055.5 87055.5 87055.5 87055.5 87055.4 87069.7 96884.7 95739.9 94655.4
          93613.3 92636.9 91743.7 90720.7 90015.2 89625.7 89111.8 88683 88330.6 88044.6 87815 87632.7
          87489.1 87377 87290.2 87223.2 87172 87132.9 87103.4 87081 87064.2 87051.6 87042.2 87035.2
          87030 87026.2 87023.3 87021.2 87019.7 87018.5 87017.7 87017.1 87016.6 87016.3 87016.1 87015.9
          87015.8 87015.7 87015.6 87015.6 87015.5 87015.5 87015.5 87015.5 87015.5 87015.6 87014.2 87050.6
        </DataArray>
        <DataArray type="Float32" Name="pressure_n" NumberOfComponents="1" format="ascii">
          96939.8 95873.3 96918.7 95828.5 94784.6 94741.6 93741.4 93698.7 92763.8 92721.5 91868.4 91826.5
          91064.8 91023.2 90358.5 90317.2 89749.6 89708.4 89234.4 89193.5 88805.1 88764.4 88452.3 88411.7
          88165.9 88125.5 87936.1 87895.7 87753.5 87713.2 87609.8 87569.6 87497.6 87457.4 87410.6 87370.4
          87343.6 87303.5 87292.3 87252.2 87253.2 87213.1 87223.6 87183.5 87201.2 87161.1 87184.4 87144.3
          87171.8 87131.7 87162.4 87122.3 87155.4 87115.3 87150.2 87110.1 87146.3 87106.2 87143.4 87103.4
          87141.3 87101.3 87139.8 87099.7 87138.6 87098.6 87137.8 87097.8 87137.2 87097.1 87136.8 87096.7
          87136.4 87096.4 87136.2 87096.1 87136 87096 87135.9 87095.8 87135.8 87095.8 87135.7 87095.7
          87135.7 87095.6 87135.7 87095.6 87135.6 87095.6 87135.6 87095.6 87135.6 87095.6 87135.6 87095.6
          87135.6 87095.6 87136.9 87095.7 87100.7 87081.4 96905.2 95784.8 94698.4 93656 92679.2 91784.9
          90981.7 90275.9 89667.1 89152.6 88723.7 88371.1 88085 87855.4 87673 87529.4 87417.2 87330.3
          87263.3 87212.1 87173 87143.4 87121.1 87104.3 87091.7 87082.3 87075.2 87070 87066.2 87063.3
          87061.2 87059.7 87058.6 87057.7 87057.1 87056.7 87056.3 87056.1 87055.9 87055.8 87055.7 87055.6
          87055.6 87055.6 87055.6 87055.5 87055.5 87055.5 87055.5 87055.4 87069.7 96884.7 95739.9 94655.4
          93613.3 92636.9 91743.7 90949.2 90243.7 89625.7 89111.8 88683 88330.6 88044.6 87815 87632.7
          87489.1 87377 87290.2 87223.2 87172 87132.9 87103.4 87081 87064.2 87051.6 87042.2 87035.2
          87030 87026.2 87023.3 87021.2 87019.7 87018.5 87017.7 87017.1 87016.6 87016.3 87016.1 87015.9
          87015.8 87015.7 87015.6 87015.6 87015.5 87015.5 87015.5 87015.5 87015.5 87015.6 87014.2 87050.6
        </DataArray>
        <DataArray type="Float32" Name="pressure_g" NumberOfComponents="1" format="ascii">
          109864 108798 109843 108753 107709 107666 106666 106623 105688 105646 104793 104751
          103989 103948 103283 103242 102674 102633 102159 102118 101730 101689 101377 101336
          101090 101050 100861 100820 100678 100638 100534 100494 100422 100382 100335 100295
          100268 100228 100217 100177 100178 100138 100148 100108 100126 100086 100109 100069
          100096 100056 100087 100047 100080 100040 100075 100035 100071 100031 100068 100028
          100066 100026 100064 100024 100063 100023 100062 100022 100062 100022 100061 100021
          100061 100021 100061 100021 100061 100020 100060 100020 100060 100020 100060 100020
          100060 100020 100060 100020 100060 100020 100060 100020 100060 100020 100060 100020
          100060 100020 100061 100020 100025 100006 109830 108709 107623 106580 105604 104709
          103906 103200 102592 102077 101648 101296 101010 100780 100597 100454 100342 100255
          100188 100137 100098 100068 100046 100029 100016 100007 99999.8 99994.6 99990.7 99987.9
          99985.8 99984.2 99983.1 99982.2 99981.6 99981.2 99980.9 99980.6 99980.5 99980.3 99980.2 99980.2
          99980.1 99980.1 99980.1 99980.1 99980.1 99980.1 99980 99979.9 99994.2 109809 108664 107580
          106538 105561 104668 103865 103159 102550 102036 101608 101255 100969 100740 100557
          100414 100302 100215 100148 100097 100057 100028 100006 99988.7 99976.2 99966.8 99959.8
          99954.5 99950.7 99947.8 99945.7 99944.2 99943.1 99942.2 99941.6 99941.2 99940.8 99940.6 99940.4
          99940.3 99940.2 99940.1 99940.1 99940.1 99940.1 99940 99940 99940 99940.1 99938.8 99975.1
        </DataArray>
        <DataArray type="Float32" Name="density_w" NumberOfComponents="1" format="ascii">
          999.71 999.709 999.71 999.709 999.708 999.708 999.708 999.708 999.707 999.707 999.707 999.707
          999.706 999.706 999.706 999.706 999.706 999.706 999.705 999.705 999.705 999.705 999.705 999.705
          999.705 999.705 999.705 999.705 999.704 999.704 999.704 999.704 999.704 999.704 999.704 999.704
          999.704 999.704 999.704 999.704 999.704 999.704 999.704 999.704 999.704 999.704 999.704 999.704
          999.704 999.704 999.704 999.704 999.704 999.704 999.704 999.704 999.704 999.704 999.704 999.704
          999.704 999.704 999.704 999.704 999.704 999.704 999.704 999.704 999.704 999.704 999.704 999.704
          999.704 999.704 999.704 999.704 999.704 999.704 999.704 999.704 999.704 999.704 999.704 999.704
          999.704 999.704 999.704 999.704 999.704 999.704 999.704 999.704 999.704 999.704 999.704 999.704
          999.704 999.704 999.704 999.704 999.704 999.704 999.71 999.709 999.708 999.708 999.707 999.707
          999.706 999.706 999.706 999.705 999.705 999.705 999.705 999.704 999.704 999.704 999.704 999.704
          999.704 999.704 999.704 999.704 999.704 999.704 999.704 999.704 999.704 999.704 999.704 999.704
          999.704 999.704 999.704 999.704 999.704 999.704 999.704 999.704 999.704 999.704 999.704 999.704
          999.704 999.704 999.704 999.704 999.704 999.704 999.704 999.704 999.704 999.71 999.709 999.708
          999.708 999.707 999.726 999.725 999.725 999.707 999.705 999.705 999.705 999.705 999.704 999.704
          999.704 999.704 999.704 999.704 999.704 999.704 999.704 999.704 999.704 999.704 999.704 999.704
          999.704 999.704 999.704 999.704 999.704 999.704 999.704 999.704 999.704 999.704 999.704 999.704
          999.704 999.704 999.704 999.704 999.704 999.704 999.704 999.704 999.704 999.704 999.704 999.704
        </DataArray>
        <DataArray type="Float32" Name="density_n" NumberOfComponents="1" format="ascii">
          878.771 878.771 878.771 878.771 878.771 878.771 878.771 878.771 878.771 878.771 878.771 878.771
          878.771 878.771 878.771 878.771 878.771 878.771 878.771 878.771 878.771 878.771 878.771 878.771
          878.771 878.771 878.771 878.771 878.771 878.771 878.771 878.771 878.771 878.771 878.771 878.771
          878.771 878.771 878.771 878.771 878.771 878.771 878.771 878.771 878.771 878.771 878.771 878.771
          878.771 878.771 878.771 878.771 878.771 878.771 878.771 878.771 878.771 878.771 878.771 878.771
          878.771 878.771 878.771 878.771 878.771 878.771 878.771 878.771 878.771 878.771 878.771 878.771
          878.771 878.771 878.771 878.771 878.771 878.771 878.771 878.771 878.771 878.771 878.771 878.771
          878.771 878.771 878.771 878.771 878.771 878.771 878.771 878.771 878.771 878.771 878.771 878.771
          878.771 878.771 878.771 878.771 878.771 878.771 878.771 878.771 878.771 878.771 878.771 878.771
          878.771 878.771 878.771 878.771 878.771 878.771 878.771 878.771 878.771 878.771 878.771 878.771
          878.771 878.771 878.771 878.771 878.771 878.771 878.771 878.771 878.771 878.771 878.771 878.771
          878.771 878.771 878.771 878.771 878.771 878.771 878.771 878.771 878.771 878.771 878.771 878.771
          878.771 878.771 878.771 878.771 878.771 878.771 878.771 878.771 878.771 878.771 878.771 878.771
          878.771 878.771 878.771 878.771 878.771 878.771 878.771 878.771 878.771 878.771 878.771 878.771
          878.771 878.771 878.771 878.771 878.771 878.771 878.771 878.771 878.771 878.771 878.771 878.771
          878.771 878.771 878.771 878.771 878.771 878.771 878.771 878.771 878.771 878.771 878.771 878.771
          878.771 878.771 878.771 878.771 878.771 878.771 878.771 878.771 878.771 878.771 878.771 878.771
        </DataArray>
        <DataArray type="Float32" Name="density_g" NumberOfComponents="1" format="ascii">
          1.34576 1.33264 1.3455 1.33209 1.31925 1.31872 1.30642 1.30589 1.29439 1.29387 1.28338 1.28286
          1.27349 1.27298 1.2648 1.26429 1.25731 1.25681 1.25098 1.25047 1.24569 1.24519 1.24135 1.24086
          1.23783 1.23733 1.235 1.23451 1.23276 1.23226 1.23099 1.2305 1.22961 1.22912 1.22854 1.22805
          1.22772 1.22722 1.22709 1.22659 1.2266 1.22611 1.22624 1.22575 1.22596 1.22547 1.22576 1.22526
          1.2256 1.22511 1.22549 1.22499 1.2254 1.22491 1.22534 1.22484 1.22529 1.2248 1.22525 1.22476
          1.22523 1.22474 1.22521 1.22472 1.2252 1.2247 1.22518 1.22469 1.22518 1.22468 1.22517 1.22468
          1.22517 1.22468 1.22516 1.22467 1.22516 1.22467 1.22516 1.22467 1.22516 1.22467 1.22516 1.22467
          1.22516 1.22467 1.22516 1.22467 1.22516 1.22467 1.22516 1.22467 1.22516 1.22467 1.22516 1.22467
          1.22516 1.22467 1.22517 1.22467 1.22473 1.22449 1.34534 1.33155 1.31819 1.30537 1.29335 1.28235
          1.27247 1.26379 1.2563 1.24997 1.24469 1.24036 1.23684 1.23401 1.23177 1.23 1.22862 1.22755
          1.22673 1.2261 1.22562 1.22525 1.22498 1.22477 1.22462 1.2245 1.22442 1.22435 1.2243 1.22427
          1.22424 1.22422 1.22421 1.2242 1.22419 1.22419 1.22418 1.22418 1.22418 1.22418 1.22417 1.22417
          1.22417 1.22417 1.22417 1.22417 1.22417 1.22417 1.22417 1.22417 1.22435 1.34508 1.331 1.31766
          1.30484 1.29283 1.28619 1.27631 1.26763 1.25611 1.24948 1.24419 1.23986 1.23634 1.23352 1.23127
          1.22951 1.22813 1.22706 1.22624 1.22561 1.22513 1.22476 1.22449 1.22428 1.22412 1.22401 1.22392
          1.22386 1.22381 1.22378 1.22375 1.22373 1.22372 1.22371 1.2237 1.22369 1.22369 1.22369 1.22369
          1.22368 1.22368 1.22368 1.22368 1.22368 1.22368 1.22368 1.22368 1.22368 1.22368 1.22366 1.22411
        </DataArray>
        <DataArray type="Float32" Name="saturation_w" NumberOfComponents="1" format="ascii">
          0.119993 0.12 0.119992 0.12 0.12 0.12 0.12 0.12 0.12 0.12 0.12 0.12
          0.12 0.12 0.12 0.12 0.12 0.12 0.12 0.12 0.12 0.12 0.12 0.12
          0.12 0.12 0.12 0.12 0.12 0.12 0.12 0.12 0.12 0.12 0.12 0.12
          0.12 0.12 0.12 0.12 0.12 0.12 0.12 0.12 0.12 0.12 0.12 0.12
          0.12 0.12 0.12 0.12 0.12 0.12 0.12 0.12 0.12 0.12 0.12 0.12
          0.12 0.12 0.12 0.12 0.12 0.12 0.12 0.12 0.12 0.12 0.12 0.12
          0.12 0.12 0.12 0.12 0.12 0.12 0.12 0.12 0.12 0.12 0.12 0.12
          0.12 0.12 0.12 0.12 0.12 0.12 0.12 0.12 0.12 0.12 0.12 0.12
          0.12 0.12 0.12 0.12 0.12 0.12 0.119992 0.12 0.12 0.12 0.12 0.12
          0.12 0.12 0.12 0.12 0.12 0.12 0.12 0.12 0.12 0.12 0.12 0.12
          0.12 0.12 0.12 0.12 0.12 0.12 0.12 0.12 0.12 0.12 0.12 0.12
          0.12 0.12 0.12 0.12 0.12 0.12 0.12 0.12 0.12 0.12 0.12 0.12
          0.12 0.12 0.12 0.12 0.12 0.12 0.12 0.12 0.12 0.119991 0.12 0.12
          0.12 0.12 0.120001 0.120001 0.120001 0.12 0.12 0.12 0.12 0.12 0.12 0.12
          0.12 0.12 0.12 0.12 0.12 0.12 0.12 0.12 0.12 0.12 0.12 0.12
          0.12 0.12 0.12 0.12 0.12 0.12 0.12 0.12 0.12 0.12 0.12 0.12
          0.12 0.12 0.12 0.12 0.12 0.12 0.12 0.12 0.12 0.12 0.12 0.119999
        </DataArray>
        <DataArray type="Float32" Name="saturation_n" NumberOfComponents="1" format="ascii">
          0 0 0 0 0 0 0 0 0 0 0 0
          0 0 0 0 0 0 0 0 0 0 0 0
          0 0 0 0 0 0 0 0 0 0 0 0
          0 0 0 0 0 0 0 0 0 0 0 0
          0 0 0 0 0 0 0 0 0 0 0 0
          0 0 0 0 0 0 0 0 0 0 0 0
          0 0 0 0 0 0 0 0 0 0 0 0
          0 0 0 0 0 0 0 0 0 0 0 0
          0 0 0 0 0 0 0 0 0 0 0 0
          0 0 0 0 0 0 0 0 0 0 0 0
          0 0 0 0 0 0 0 0 0 0 0 0
          0 0 0 0 0 0 0 0 0 0 0 0
          0 0 0 0 0 0 0 0 0 0 0 0
          0 0 0.000604708 0.00122063 0.00122059 0 0 0 0 0 0 0
          0 0 0 0 0 0 0 0 0 0 0 0
          0 0 0 0 0 0 0 0 0 0 0 0
          0 0 0 0 0 0 0 0 0 0 0 0
        </DataArray>
        <DataArray type="Float32" Name="saturation_g" NumberOfComponents="1" format="ascii">
          0.880007 0.88 0.880008 0.88 0.88 0.88 0.88 0.88 0.88 0.88 0.88 0.88
          0.88 0.88 0.88 0.88 0.88 0.88 0.88 0.88 0.88 0.88 0.88 0.88
          0.88 0.88 0.88 0.88 0.88 0.88 0.88 0.88 0.88 0.88 0.88 0.88
          0.88 0.88 0.88 0.88 0.88 0.88 0.88 0.88 0.88 0.88 0.88 0.88
          0.88 0.88 0.88 0.88 0.88 0.88 0.88 0.88 0.88 0.88 0.88 0.88
          0.88 0.88 0.88 0.88 0.88 0.88 0.88 0.88 0.88 0.88 0.88 0.88
          0.88 0.88 0.88 0.88 0.88 0.88 0.88 0.88 0.88 0.88 0.88 0.88
          0.88 0.88 0.88 0.88 0.88 0.88 0.88 0.88 0.88 0.88 0.88 0.88
          0.88 0.88 0.88 0.88 0.88 0.88 0.880008 0.88 0.88 0.88 0.88 0.88
          0.88 0.88 0.88 0.88 0.88 0.88 0.88 0.88 0.88 0.88 0.88 0.88
          0.88 0.88 0.88 0.88 0.88 0.88 0.88 0.88 0.88 0.88 0.88 0.88
          0.88 0.88 0.88 0.88 0.88 0.88 0.88 0.88 0.88 0.88 0.88 0.88
          0.88 0.88 0.88 0.88 0.88 0.88 0.88 0.88 0.88 0.880009 0.88 0.88
          0.88 0.88 0.879395 0.878779 0.878779 0.88 0.88 0.88 0.88 0.88 0.88 0.88
          0.88 0.88 0.88 0.88 0.88 0.88 0.88 0.88 0.88 0.88 0.88 0.88
          0.88 0.88 0.88 0.88 0.88 0.88 0.88 0.88 0.88 0.88 0.88 0.88
          0.88 0.88 0.88 0.88 0.88 0.88 0.88 0.88 0.88 0.88 0.88 0.880001
        </DataArray>
        <DataArray type="Float32" Name="relativePerm_w" NumberOfComponents="1" format="ascii">
          0 1.29906e-21 0 1.25087e-21 1.23109e-21 1.20799e-21 9.36636e-22 9.16161e-22 6.44098e-22 6.28134e-22 4.13234e-22 4.01397e-22
          2.50201e-22 2.41709e-22 1.44221e-22 1.38369e-22 7.96265e-23 7.57067e-23 4.23862e-23 3.98426e-23 2.18448e-23 2.023e-23 1.09555e-23 9.9516e-24
          5.37616e-24 4.76284e-24 2.59648e-24 2.22694e-24 1.24193e-24 1.0215e-24 5.92389e-25 4.61696e-25 2.8394e-25 2.06571e-25 1.37921e-25 9.19576e-26
          6.85193e-26 4.09628e-26 3.51546e-26 1.83778e-26 1.8809e-26 8.36617e-27 1.05892e-26 3.89691e-27 6.31918e-27 1.87451e-27 4.01667e-27 9.4033e-28
          2.72427e-27 4.96608e-28 1.96856e-27 2.78464e-28 1.50903e-27 1.66827e-28 1.21946e-27 1.07156e-28 1.03119e-27 7.37575e-29 9.05447e-28 5.42335e-29
          8.19696e-28 4.23237e-29 7.60268e-28 3.48062e-29 7.18451e-28 2.98953e-29 6.88843e-28 2.66108e-29 6.67641e-28 2.43699e-29 6.52441e-28 2.28159e-29
          6.41519e-28 2.1726e-29 6.33667e-28 2.09547e-29 6.27949e-28 2.04028e-29 6.23913e-28 2.00182e-29 6.20979e-28 1.97388e-29 6.18926e-28 1.95465e-29
          6.1751e-28 1.94143e-29 6.16538e-28 1.93227e-29 6.1595e-28 1.92641e-29 6.1561e-28 1.92314e-29 6.15418e-28 1.92243e-29 6.15804e-28 1.92042e-29
          6.13517e-28 1.92766e-29 6.85787e-28 2.14536e-29 4.76048e-29 6.47303e-31 0 1.19592e-21 1.18439e-21 8.96172e-22 6.12448e-22 3.92589e-22
          2.34975e-22 1.33617e-22 7.19414e-23 3.74074e-23 1.86981e-23 9.01191e-24 4.19882e-24 1.89487e-24 8.29334e-25 3.52173e-25 1.4499e-25 5.77413e-26
          2.21447e-26 8.11576e-27 2.80602e-27 8.95502e-28 2.53852e-28 5.93011e-29 9.60698e-30 6.13739e-31 0 0 0 0
          0 0 0 0 0 0 0 0 0 0 0 0
          0 0 0 0 0 0 0 0 0 0 1.1481e-21 1.16198e-21
          8.76268e-22 5.9699e-22 1.47387e-20 1.37308e-20 1.18583e-20 1.52176e-22 3.67511e-23 1.72751e-23 8.13425e-24 3.68174e-24 1.59807e-24 6.63334e-25
          2.61824e-25 9.72831e-26 3.34354e-26 1.03049e-26 2.68541e-27 5.21012e-28 5.2521e-29 2.98849e-31 0 0 0 0
          0 0 0 0 0 0 0 0 0 0 0 0
          0 0 0 0 0 0 0 0 0 0 0 0
        </DataArray>
        <DataArray type="Float32" Name="relativePerm_n" NumberOfComponents="1" format="ascii">
          0 0 0 0 0 0 0 0 0 0 0 0
          0 0 0 0 0 0 0 0 0 0 0 0
          0 0 0 0 0 0 0 0 0 0 0 0
          0 0 0 0 0 0 0 0 0 0 0 0
          0 0 0 0 0 0 0 0 0 0 0 0
          0 0 0 0 0 0 0 0 0 0 0 0
          0 0 0 0 0 0 0 0 0 0 0 0
          0 0 0 0 0 0 0 0 0 0 0 0
          0 0 0 0 0 0 0 0 0 0 0 0
          0 0 0 0 0 0 0 0 0 0 0 0
          0 0 0 0 0 0 0 0 0 0 0 0
          0 0 0 0 0 0 0 0 0 0 0 0
          0 0 0 0 0 0 0 0 0 0 0 0
          0 0 5.43479e-11 5.01912e-10 5.01836e-10 0 0 0 0 0 0 0
          0 0 0 0 0 0 0 0 0 0 0 0
          0 0 0 0 0 0 0 0 0 0 0 0
          0 0 0 0 0 0 0 0 0 0 0 0
        </DataArray>
        <DataArray type="Float32" Name="relativePerm_g" NumberOfComponents="1" format="ascii">
          0.907723 0.907713 0.907723 0.907713 0.907713 0.907713 0.907714 0.907714 0.907714 0.907714 0.907714 0.907714
          0.907714 0.907714 0.907714 0.907714 0.907714 0.907714 0.907714 0.907714 0.907714 0.907714 0.907714 0.907714
          0.907714 0.907714 0.907714 0.907714 0.907714 0.907714 0.907714 0.907714 0.907714 0.907714 0.907714 0.907714
          0.907714 0.907714 0.907714 0.907714 0.907714 0.907714 0.907714 0.907714 0.907714 0.907714 0.907714 0.907714
          0.907714 0.907714 0.907714 0.907714 0.907714 0.907714 0.907714 0.907714 0.907714 0.907714 0.907714 0.907714
          0.907714 0.907714 0.907714 0.907714 0.907714 0.907714 0.907714 0.907714 0.907714 0.907714 0.907714 0.907714
          0.907714 0.907714 0.907714 0.907714 0.907714 0.907714 0.907714 0.907714 0.907714 0.907714 0.907714 0.907714
          0.907714 0.907714 0.907714 0.907714 0.907714 0.907714 0.907714 0.907714 0.907714 0.907714 0.907714 0.907714
          0.907714 0.907714 0.907714 0.907714 0.907714 0.907714 0.907724 0.907713 0.907713 0.907714 0.907714 0.907714
          0.907714 0.907714 0.907714 0.907714 0.907714 0.907714 0.907714 0.907714 0.907714 0.907714 0.907714 0.907714
          0.907714 0.907714 0.907714 0.907714 0.907714 0.907714 0.907714 0.907714 0.907714 0.907714 0.907714 0.907714
          0.907714 0.907714 0.907714 0.907714 0.907714 0.907714 0.907714 0.907714 0.907714 0.907714 0.907714 0.907714
          0.907714 0.907714 0.907714 0.907714 0.907714 0.907714 0.907714 0.907714 0.907714 0.907725 0.907713 0.907713
          0.907714 0.907714 0.90697 0.906212 0.906212 0.907714 0.907714 0.907714 0.907714 0.907714 0.907714 0.907714
          0.907714 0.907714 0.907714 0.907714 0.907714 0.907714 0.907714 0.907714 0.907714 0.907714 0.907714 0.907714
          0.907714 0.907714 0.907714 0.907714 0.907714 0.907714 0.907714 0.907714 0.907714 0.907714 0.907714 0.907714
          0.907714 0.907714 0.907714 0.907714 0.907714 0.907714 0.907714 0.907714 0.907714 0.907714 0.907714 0.907715
        </DataArray>
        <DataArray type="Float32" Name="porosity" NumberOfComponents="1" format="ascii">
          0.4 0.4 0.4 0.4 0.4 0.4 0.4 0.4 0.4 0.4 0.4 0.4
          0.4 0.4 0.4 0.4 0.4 0.4 0.4 0.4 0.4 0.4 0.4 0.4
          0.4 0.4 0.4 0.4 0.4 0.4 0.4 0.4 0.4 0.4 0.4 0.4
          0.4 0.4 0.4 0.4 0.4 0.4 0.4 0.4 0.4 0.4 0.4 0.4
          0.4 0.4 0.4 0.4 0.4 0.4 0.4 0.4 0.4 0.4 0.4 0.4
          0.4 0.4 0.4 0.4 0.4 0.4 0.4 0.4 0.4 0.4 0.4 0.4
          0.4 0.4 0.4 0.4 0.4 0.4 0.4 0.4 0.4 0.4 0.4 0.4
          0.4 0.4 0.4 0.4 0.4 0.4 0.4 0.4 0.4 0.4 0.4 0.4
          0.4 0.4 0.4 0.4 0.4 0.4 0.4 0.4 0.4 0.4 0.4 0.4
          0.4 0.4 0.4 0.4 0.4 0.4 0.4 0.4 0.4 0.4 0.4 0.4
          0.4 0.4 0.4 0.4 0.4 0.4 0.4 0.4 0.4 0.4 0.4 0.4
          0.4 0.4 0.4 0.4 0.4 0.4 0.4 0.4 0.4 0.4 0.4 0.4
          0.4 0.4 0.4 0.4 0.4 0.4 0.4 0.4 0.4 0.4 0.4 0.4
          0.4 0.4 0.4 0.4 0.4 0.4 0.4 0.4 0.4 0.4 0.4 0.4
          0.4 0.4 0.4 0.4 0.4 0.4 0.4 0.4 0.4 0.4 0.4 0.4
          0.4 0.4 0.4 0.4 0.4 0.4 0.4 0.4 0.4 0.4 0.4 0.4
          0.4 0.4 0.4 0.4 0.4 0.4 0.4 0.4 0.4 0.4 0.4 0.4
        </DataArray>
        <DataArray type="Float32" Name="moleFrac_w^H2O" NumberOfComponents="1" format="ascii">
          0.999984 0.999984 0.999984 0.999984 0.999984 0.999984 0.999984 0.999984 0.999984 0.999984 0.999984 0.999984
          0.999984 0.999984 0.999985 0.999985 0.999985 0.999985 0.999985 0.999985 0.999985 0.999985 0.999985 0.999985
          0.999985 0.999985 0.999985 0.999985 0.999985 0.999985 0.999985 0.999985 0.999985 0.999985 0.999985 0.999985
          0.999985 0.999985 0.999985 0.999985 0.999985 0.999985 0.999985 0.999985 0.999985 0.999985 0.999985 0.999985
          0.999985 0.999985 0.999985 0.999985 0.999985 0.999985 0.999985 0.999985 0.999985 0.999985 0.999985 0.999985
          0.999985 0.999985 0.999985 0.999985 0.999985 0.999985 0.999985 0.999985 0.999985 0.999985 0.999985 0.999985
          0.999985 0.999985 0.999985 0.999985 0.999985 0.999985 0.999985 0.999985 0.999985 0.999985 0.999985 0.999985
          0.999985 0.999985 0.999985 0.999985 0.999985 0.999985 0.999985 0.999985 0.999985 0.999985 0.999985 0.999985
          0.999985 0.999985 0.999985 0.999985 0.999985 0.999985 0.999984 0.999984 0.999984 0.999984 0.999984 0.999984
          0.999984 0.999985 0.999985 0.999985 0.999985 0.999985 0.999985 0.999985 0.999985 0.999985 0.999985 0.999985
          0.999985 0.999985 0.999985 0.999985 0.999985 0.999985 0.999985 0.999985 0.999985 0.999985 0.999985 0.999985
          0.999985 0.999985 0.999985 0.999985 0.999985 0.999985 0.999985 0.999985 0.999985 0.999985 0.999985 0.999985
          0.999985 0.999985 0.999985 0.999985 0.999985 0.999985 0.999985 0.999985 0.999985 0.999984 0.999984 0.999984
          0.999984 0.999984 0.999981 0.999981 0.999981 0.999984 0.999985 0.999985 0.999985 0.999985 0.999985 0.999985
          0.999985 0.999985 0.999985 0.999985 0.999985 0.999985 0.999985 0.999985 0.999985 0.999985 0.999985 0.999985
          0.999985 0.999985 0.999985 0.999985 0.999985 0.999985 0.999985 0.999985 0.999985 0.999985 0.999985 0.999985
          0.999985 0.999985 0.999985 0.999985 0.999985 0.999985 0.999985 0.999985 0.999985 0.999985 0.999985 0.999985
        </DataArray>
        <DataArray type="Float32" Name="moleFrac_w^mesitylene" NumberOfComponents="1" format="ascii">
          7.37565e-19 -7.30404e-19 3.68711e-19 -3.65052e-19 -2.89238e-18 -2.52982e-18 -1.43218e-18 -1.43161e-18 -7.09529e-19 5.67396e-18 3.16583e-16 1.20843e-12
          4.20968e-16 1.1646e-12 3.32476e-16 8.86274e-13 2.27467e-17 6.21145e-14 -3.42918e-19 2.61678e-15 6.82953e-19 7.81668e-17 -3.40292e-19 3.74172e-18
          6.78662e-19 2.71356e-18 -2.03136e-18 1.01527e-18 1.01384e-18 0 6.74929e-19 -6.74659e-19 3.37088e-19 -6.73905e-19 6.73591e-19 -1.00998e-18
          3.36571e-19 6.72872e-19 -6.72797e-19 1.00879e-18 3.36267e-19 -1.0084e-18 -1.0085e-18 1.0081e-18 2.01656e-18 3.35958e-19 2.01622e-18 2.01541e-18
          -1.00798e-18 2.01516e-18 6.71925e-19 1.00748e-18 1.00782e-18 2.01483e-18 6.71843e-19 -6.71574e-19 1.34363e-18 1.00732e-18 -1.67949e-18 -6.71529e-19
          -6.71784e-19 -3.35757e-19 -3.35887e-19 6.71504e-19 1.00765e-18 1.67874e-18 6.7176e-19 6.71491e-19 -2.01527e-18 -6.71487e-19 1.67938e-18 6.71484e-19
          -6.71751e-19 2.35019e-18 -6.71749e-19 2.35018e-18 6.71748e-19 -6.71479e-19 -6.71747e-19 6.71478e-19 -3.35873e-19 6.71478e-19 -1.00762e-18 2.35017e-18
          2.01524e-18 2.68591e-18 -6.71746e-19 6.71477e-19 -2.01524e-18 6.71477e-19 -6.71745e-19 -1.00721e-18 -1.00762e-18 -1.00721e-18 6.71745e-19 2.35017e-18
          -1.67936e-18 1.67869e-18 1.34351e-18 -1.00722e-18 6.71511e-19 -6.71381e-19 1.47466e-18 1.09471e-18 3.61258e-19 7.15519e-19 1.7478e-14 3.26604e-09
          2.72188e-09 2.3728e-09 1.63305e-10 6.84813e-12 2.02186e-13 4.54641e-15 8.10352e-17 3.0446e-18 2.02606e-18 -1.01158e-18 1.01045e-18 -1.00958e-18
          -1.34521e-18 2.3529e-18 -6.71996e-19 2.68719e-18 -2.01494e-18 1.0073e-18 6.7145e-19 -3.35693e-19 6.7134e-19 3.35653e-18 2.34948e-18 6.7126e-19
          2.34936e-18 1.67809e-18 6.71228e-19 1.00683e-18 2.01365e-18 1.67804e-18 1.00682e-18 2.34924e-18 2.01363e-18 6.71209e-19 1.00681e-18 -1.67802e-18
          2.68483e-18 -1.00681e-18 -6.71208e-19 1.34242e-18 1.00681e-18 1.00681e-18 -1.00681e-18 -6.71207e-19 -1.00695e-18 3.68597e-19 2.55328e-18 1.80557e-18
          -3.57616e-19 4.07411e-11 3.40289e-06 3.40292e-06 3.40294e-06 2.51531e-07 1.04977e-08 3.08739e-10 6.88933e-12 1.20037e-13 1.64883e-15 1.92398e-17
          -6.74118e-19 -1.01005e-18 6.72783e-19 -2.017e-18 1.34398e-18 -1.00759e-18 -6.71529e-19 1.00707e-18 1.0069e-18 3.35591e-19 1.34224e-18 6.71071e-19
          2.01311e-18 2.34854e-18 6.70991e-19 6.70977e-19 1.67742e-18 -1.6774e-18 1.00643e-18 6.70949e-19 3.35473e-19 -1.67736e-18 -6.70943e-19 2.3483e-18
          1.00641e-18 1.00641e-18 6.7094e-19 0 -1.00641e-18 1.00641e-18 -6.70939e-19 -6.70939e-19 2.01282e-18 2.01282e-18 1.0064e-18 1.00676e-18
        </DataArray>
        <DataArray type="Float32" Name="moleFrac_w^Air" NumberOfComponents="1" format="ascii">
          1.64473e-05 1.62859e-05 1.64441e-05 1.62791e-05 1.6121e-05 1.61145e-05 1.59631e-05 1.59566e-05 1.58151e-05 1.58087e-05 1.56795e-05 1.56732e-05
          1.55579e-05 1.55516e-05 1.54509e-05 1.54447e-05 1.53587e-05 1.53525e-05 1.52807e-05 1.52746e-05 1.52158e-05 1.52096e-05 1.51623e-05 1.51562e-05
          1.5119e-05 1.51129e-05 1.50842e-05 1.50781e-05 1.50566e-05 1.50504e-05 1.50348e-05 1.50287e-05 1.50178e-05 1.50117e-05 1.50046e-05 1.49985e-05
          1.49945e-05 1.49884e-05 1.49867e-05 1.49806e-05 1.49808e-05 1.49747e-05 1.49763e-05 1.49702e-05 1.49729e-05 1.49669e-05 1.49704e-05 1.49643e-05
          1.49685e-05 1.49624e-05 1.49671e-05 1.4961e-05 1.4966e-05 1.49599e-05 1.49652e-05 1.49591e-05 1.49646e-05 1.49586e-05 1.49642e-05 1.49581e-05
          1.49639e-05 1.49578e-05 1.49636e-05 1.49576e-05 1.49635e-05 1.49574e-05 1.49633e-05 1.49573e-05 1.49632e-05 1.49572e-05 1.49632e-05 1.49571e-05
          1.49631e-05 1.49571e-05 1.49631e-05 1.4957e-05 1.49631e-05 1.4957e-05 1.4963e-05 1.4957e-05 1.4963e-05 1.4957e-05 1.4963e-05 1.4957e-05
          1.4963e-05 1.49569e-05 1.4963e-05 1.49569e-05 1.4963e-05 1.49569e-05 1.4963e-05 1.49569e-05 1.4963e-05 1.49569e-05 1.4963e-05 1.49569e-05
          1.4963e-05 1.49569e-05 1.49632e-05 1.4957e-05 1.49577e-05 1.49548e-05 1.64421e-05 1.62725e-05 1.6108e-05 1.59502e-05 1.58023e-05 1.56669e-05
          1.55453e-05 1.54384e-05 1.53463e-05 1.52684e-05 1.52034e-05 1.51501e-05 1.51067e-05 1.5072e-05 1.50443e-05 1.50226e-05 1.50056e-05 1.49925e-05
          1.49823e-05 1.49746e-05 1.49687e-05 1.49642e-05 1.49608e-05 1.49583e-05 1.49563e-05 1.49549e-05 1.49539e-05 1.49531e-05 1.49525e-05 1.49521e-05
          1.49517e-05 1.49515e-05 1.49513e-05 1.49512e-05 1.49511e-05 1.4951e-05 1.4951e-05 1.4951e-05 1.49509e-05 1.49509e-05 1.49509e-05 1.49509e-05
          1.49509e-05 1.49509e-05 1.49509e-05 1.49509e-05 1.49509e-05 1.49509e-05 1.49509e-05 1.49509e-05 1.4953e-05 1.6439e-05 1.62657e-05 1.61015e-05
          1.59437e-05 1.57959e-05 1.56436e-05 1.5522e-05 1.54152e-05 1.53387e-05 1.52621e-05 1.51973e-05 1.51439e-05 1.51006e-05 1.50659e-05 1.50383e-05
          1.50165e-05 1.49996e-05 1.49864e-05 1.49763e-05 1.49685e-05 1.49626e-05 1.49581e-05 1.49547e-05 1.49522e-05 1.49503e-05 1.49489e-05 1.49478e-05
          1.4947e-05 1.49464e-05 1.4946e-05 1.49457e-05 1.49454e-05 1.49453e-05 1.49451e-05 1.49451e-05 1.4945e-05 1.49449e-05 1.49449e-05 1.49449e-05
          1.49449e-05 1.49448e-05 1.49448e-05 1.49448e-05 1.49448e-05 1.49448e-05 1.49448e-05 1.49448e-05 1.49448e-05 1.49448e-05 1.49446e-05 1.49501e-05
        </DataArray>
        <DataArray type="Float32" Name="moleFrac_n^H2O" NumberOfComponents="1" format="ascii">
          1.09016e-05 1.09016e-05 1.09016e-05 1.09016e-05 1.09016e-05 1.09016e-05 1.09016e-05 1.09016e-05 1.09017e-05 1.09017e-05 1.09017e-05 1.09017e-05
          1.09017e-05 1.09017e-05 1.09017e-05 1.09017e-05 1.09017e-05 1.09017e-05 1.09017e-05 1.09017e-05 1.09017e-05 1.09017e-05 1.09017e-05 1.09017e-05
          1.09017e-05 1.09017e-05 1.09017e-05 1.09017e-05 1.09017e-05 1.09017e-05 1.09017e-05 1.09017e-05 1.09017e-05 1.09017e-05 1.09017e-05 1.09017e-05
          1.09017e-05 1.09017e-05 1.09017e-05 1.09017e-05 1.09017e-05 1.09017e-05 1.09017e-05 1.09017e-05 1.09017e-05 1.09017e-05 1.09017e-05 1.09017e-05
          1.09017e-05 1.09017e-05 1.09017e-05 1.09017e-05 1.09017e-05 1.09017e-05 1.09017e-05 1.09017e-05 1.09017e-05 1.09017e-05 1.09017e-05 1.09017e-05
          1.09017e-05 1.09017e-05 1.09017e-05 1.09017e-05 1.09017e-05 1.09017e-05 1.09017e-05 1.09017e-05 1.09017e-05 1.09017e-05 1.09017e-05 1.09017e-05
          1.09017e-05 1.09017e-05 1.09017e-05 1.09017e-05 1.09017e-05 1.09017e-05 1.09017e-05 1.09017e-05 1.09017e-05 1.09017e-05 1.09017e-05 1.09017e-05
          1.09017e-05 1.09017e-05 1.09017e-05 1.09017e-05 1.09017e-05 1.09017e-05 1.09017e-05 1.09017e-05 1.09017e-05 1.09017e-05 1.09017e-05 1.09017e-05