<?xml version="1.0"?>
<VTKFile type="UnstructuredGrid" version="0.1" byte_order="LittleEndian">
  <UnstructuredGrid>
    <Piece NumberOfCells="150" NumberOfPoints="204">
      <PointData Scalars="pressure_w">
        <DataArray type="Float32" Name="pressure_w" NumberOfComponents="1" format="ascii">
          96942.1 95891.2 96921 95846.4 94816.3 94773.3 93783.6 93740.8 92812.1 92769.8 91918.2 91876.3
          91112.1 91070.5 90400.1 90358.7 89783.5 89742.3 89259.9 89219 88822.3 88781.5 88461.9 88421.3
          88169.2 88128.7 87934.4 87894.1 87748.3 87708 87602.3 87562 87488.7 87448.5 87401.2 87361.1
          87334.3 87294.2 87283.5 87243.4 87245.1 87205 87216.4 87176.3 87194.9 87154.9 87179 87139
          87167.3 87127.2 87158.6 87118.5 87152.3 87112.2 87147.6 87107.6 87144.3 87104.2 87141.8 87101.8
          87140 87100 87138.8 87098.7 87137.8 87097.8 87137.2 87097.1 87136.7 87096.7 87136.4 87096.3
          87136.1 87096.1 87136 87095.9 87135.8 87095.8 87135.8 87095.7 87135.7 87095.6 87135.7 87095.6
          87135.6 87095.6 87135.6 87095.6 87135.6 87095.6 87135.6 87095.6 87135.6 87095.6 87135.6 87095.6
          87135.6 87095.6 87136.9 87095.7 87100.7 87081.4 96907.5 95802.7 94730.1 93698.1 92727.4 91834.7
          91029 90317.5 89701 89178.1 88740.8 88380.7 88088.3 87853.7 87667.7 87521.8 87408.3 87320.9
          87254 87203.3 87165 87136.2 87114.8 87098.9 87087.1 87078.5 87072.2 87067.5 87064.2 87061.7
          87059.9 87058.7 87057.8 87057.1 87056.6 87056.3 87056 87055.9 87055.8 87055.7 87055.6 87055.6
          87055.5 87055.5 87055.5 87055.5 87055.5 87055.5 87055.5 87055.4 87069.7 96887 95757.8 94687.1
          93655.4 92685.1 91793.4 90767.9 90056.7 89659.6 89137.2 88700.1 88340.2 88047.8 87813.4 87627.5
          87481.6 87368.2 87280.8 87213.9 87163.2 87124.9 87096.2 87074.8 87058.9 87047.1 87038.5 87032.1
          87027.5 87024.1 87021.7 87019.9 87018.6 87017.7 87017.1 87016.6 87016.3 87016 87015.9 87015.7
          87015.6 87015.6 87015.5 87015.5 87015.5 87015.5 87015.5 87015.5 87015.5 87015.6 87014.2 87050.6
        </DataArray>
        <DataArray type="Float32" Name="pressure_n" NumberOfComponents="1" format="ascii">
          96942.1 95891.2 96921 95846.4 94816.3 94773.3 93783.6 93740.8 92812.1 92769.8 91918.2 91876.3
          91112.1 91070.5 90400.1 90358.7 89783.5 89742.3 89259.9 89219 88822.3 88781.5 88461.9 88421.3
          88169.2 88128.7 87934.4 87894.1 87748.3 87708 87602.3 87562 87488.7 87448.5 87401.2 87361.1
          87334.3 87294.2 87283.5 87243.4 87245.1 87205 87216.4 87176.3 87194.9 87154.9 87179 87139
          87167.3 87127.2 87158.6 87118.5 87152.3 87112.2 87147.6 87107.6 87144.3 87104.2 87141.8 87101.8
          87140 87100 87138.8 87098.7 87137.8 87097.8 87137.2 87097.1 87136.7 87096.7 87136.4 87096.3
          87136.1 87096.1 87136 87095.9 87135.8 87095.8 87135.8 87095.7 87135.7 87095.6 87135.7 87095.6
          87135.6 87095.6 87135.6 87095.6 87135.6 87095.6 87135.6 87095.6 87135.6 87095.6 87135.6 87095.6
          87135.6 87095.6 87136.9 87095.7 87100.7 87081.4 96907.5 95802.7 94730.1 93698.1 92727.4 91834.7
          91029 90317.5 89701 89178.1 88740.8 88380.7 88088.3 87853.7 87667.7 87521.8 87408.3 87320.9
          87254 87203.3 87165 87136.2 87114.8 87098.9 87087.1 87078.5 87072.2 87067.5 87064.2 87061.7
          87059.9 87058.7 87057.8 87057.1 87056.6 87056.3 87056 87055.9 87055.8 87055.7 87055.6 87055.6
          87055.5 87055.5 87055.5 87055.5 87055.5 87055.5 87055.5 87055.4 87069.7 96887 95757.8 94687.1
          93655.4 92685.1 91793.4 90996.4 90285.2 89659.6 89137.2 88700.1 88340.2 88047.8 87813.4 87627.5
          87481.6 87368.2 87280.8 87213.9 87163.2 87124.9 87096.2 87074.8 87058.9 87047.1 87038.5 87032.1
          87027.5 87024.1 87021.7 87019.9 87018.6 87017.7 87017.1 87016.6 87016.3 87016 87015.9 87015.7
          87015.6 87015.6 87015.5 87015.5 87015.5 87015.5 87015.5 87015.5 87015.5 87015.6 87014.2 87050.6
        </DataArray>
        <DataArray type="Float32" Name="pressure_g" NumberOfComponents="1" format="ascii">
          109867 108816 109846 108771 107741 107698 106708 106665 105737 105694 104843 104801
          104037 103995 103325 103283 102708 102667 102184 102143 101747 101706 101386 101346
          101094 101053 100859 100819 100673 100633 100527 100487 100413 100373 100326 100286
          100259 100219 100208 100168 100170 100130 100141 100101 100119 100079 100104 100063
          100092 100052 100083 100043 100077 100037 100072 100032 100069 100029 100066 100026
          100065 100025 100063 100023 100062 100022 100062 100022 100061 100021 100061 100021
          100061 100021 100060 100020 100060 100020 100060 100020 100060 100020 100060 100020
          100060 100020 100060 100020 100060 100020 100060 100020 100060 100020 100060 100020
          100060 100020 100061 100020 100025 100006 109832 108727 107655 106623 105652 104759
          103953 103242 102626 102103 101665 101305 101013 100778 100592 100446 100333 100245
          100179 100128 100089 100061 100039 100023 100012 100003 99996.7 99992.1 99988.7 99986.2
          99984.5 99983.2 99982.3 99981.6 99981.1 99980.8 99980.6 99980.4 99980.3 99980.2 99980.1 99980.1
          99980.1 99980.1 99980.1 99980 99980 99980.1 99980 99979.9 99994.2 109812 108682 107612
          106580 105610 104718 103912 103201 102584 102062 101625 101265 100972 100738 100552
          100406 100293 100205 100138 100088 100049 100021 99999.3 99983.4 99971.6 99963 99956.7
          99952 99948.7 99946.2 99944.4 99943.2 99942.3 99941.6 99941.1 99940.8 99940.5 99940.4 99940.3
          99940.2 99940.1 99940.1 99940.1 99940 99940 99940 99940 99940 99940.1 99938.8 99975.1
        </DataArray>
        <DataArray type="Float32" Name="density_w" NumberOfComponents="1" format="ascii">
          999.71 999.709 999.71 999.709 999.708 999.708 999.708 999.708 999.707 999.707 999.707 999.707
          999.706 999.706 999.706 999.706 999.706 999.706 999.705 999.705 999.705 999.705 999.705 999.705
          999.705 999.705 999.705 999.705 999.704 999.704 999.704 999.704 999.704 999.704 999.704 999.704
          999.704 999.704 999.704 999.704 999.704 999.704 999.704 999.704 999.704 999.704 999.704 999.704
          999.704 999.704 999.704 999.704 999.704 999.704 999.704 999.704 999.704 999.704 999.704 999.704
          999.704 999.704 999.704 999.704 999.704 999.704 999.704 999.704 999.704 999.704 999.704 999.704
          999.704 999.704 999.704 999.704 999.704 999.704 999.704 999.704 999.704 999.704 999.704 999.704
          999.704 999.704 999.704 999.704 999.704 999.704 999.704 999.704 999.704 999.704 999.704 999.704
          999.704 999.704 999.704 999.704 999.704 999.704 999.71 999.709 999.708 999.708 999.707 999.707
          999.706 999.706 999.706 999.705 999.705 999.705 999.705 999.704 999.704 999.704 999.704 999.704
          999.704 999.704 999.704 999.704 999.704 999.704 999.704 999.704 999.704 999.704 999.704 999.704
          999.704 999.704 999.704 999.704 999.704 999.704 999.704 999.704 999.704 999.704 999.704 999.704
          999.704 999.704 999.704 999.704 999.704 999.704 999.704 999.704 999.704 999.71 999.709 999.708
          999.708 999.707 999.726 999.725 999.725 999.707 999.705 999.705 999.705 999.705 999.704 999.704
          999.704 999.704 999.704 999.704 999.704 999.704 999.704 999.704 999.704 999.704 999.704 999.704
          999.704 999.704 999.704 999.704 999.704 999.704 999.704 999.704 999.704 999.704 999.704 999.704
          999.704 999.704 999.704 999.704 999.704 999.704 999.704 999.704 999.704 999.704 999.704 999.704
        </DataArray>
        <DataArray type="Float32" Name="density_n" NumberOfComponents="1" format="ascii">
          878.771 878.771 878.771 878.771 878.771 878.771 878.771 878.771 878.771 878.771 878.771 878.771
          878.771 878.771 878.771 878.771 878.771 878.771 878.771 878.771 878.771 878.771 878.771 878.771
          878.771 878.771 878.771 878.771 878.771 878.771 878.771 878.771 878.771 878.771 878.771 878.771
          878.771 878.771 878.771 878.771 878.771 878.771 878.771 878.771 878.771 878.771 878.771 878.771
          878.771 878.771 878.771 878.771 878.771 878.771 878.771 878.771 878.771 878.771 878.771 878.771
          878.771 878.771 878.771 878.771 878.771 878.771 878.771 878.771 878.771 878.771 878.771 878.771
          878.771 878.771 878.771 878.771 878.771 878.771 878.771 878.771 878.771 878.771 878.771 878.771
          878.771 878.771 878.771 878.771 878.771 878.771 878.771 878.771 878.771 878.771 878.771 878.771
          878.771 878.771 878.771 878.771 878.771 878.771 878.771 878.771 878.771 878.771 878.771 878.771
          878.771 878.771 878.771 878.771 878.771 878.771 878.771 878.771 878.771 878.771 878.771 878.771
          878.771 878.771 878.771 878.771 878.771 878.771 878.771 878.771 878.771 878.771 878.771 878.771
          878.771 878.771 878.771 878.771 878.771 878.771 878.771 878.771 878.771 878.771 878.771 878.771
          878.771 878.771 878.771 878.771 878.771 878.771 878.771 878.771 878.771 878.771 878.771 878.771
          878.771 878.771 878.771 878.771 878.771 878.771 878.771 878.771 878.771 878.771 878.771 878.771
          878.771 878.771 878.771 878.771 878.771 878.771 878.771 878.771 878.771 878.771 878.771 878.771
          878.771 878.771 878.771 878.771 878.771 878.771 878.771 878.771 878.771 878.771 878.771 878.771
          878.771 878.771 878.771 878.771 878.771 878.771 878.771 878.771 878.771 878.771 878.771 878.771
        </DataArray>
        <DataArray type="Float32" Name="density_g" NumberOfComponents="1" format="ascii">
          1.34579 1.33286 1.34553 1.33231 1.31964 1.31911 1.30693 1.30641 1.29498 1.29446 1.28399 1.28347
          1.27407 1.27356 1.26531 1.26481 1.25773 1.25722 1.25129 1.25079 1.24591 1.2454 1.24147 1.24097
          1.23787 1.23737 1.23498 1.23449 1.23269 1.2322 1.2309 1.2304 1.2295 1.22901 1.22843 1.22793
          1.2276 1.22711 1.22698 1.22648 1.22651 1.22601 1.22615 1.22566 1.22589 1.22539 1.22569 1.2252
          1.22555 1.22505 1.22544 1.22495 1.22536 1.22487 1.22531 1.22481 1.22526 1.22477 1.22523 1.22474
          1.22521 1.22472 1.2252 1.2247 1.22519 1.22469 1.22518 1.22468 1.22517 1.22468 1.22517 1.22467
          1.22516 1.22467 1.22516 1.22467 1.22516 1.22467 1.22516 1.22467 1.22516 1.22467 1.22516 1.22467
          1.22516 1.22467 1.22516 1.22467 1.22516 1.22467 1.22516 1.22467 1.22516 1.22467 1.22516 1.22467
          1.22516 1.22467 1.22517 1.22467 1.22473 1.22449 1.34536 1.33177 1.31858 1.30588 1.29394 1.28297
          1.27305 1.2643 1.25672 1.25028 1.2449 1.24047 1.23688 1.23399 1.2317 1.22991 1.22851 1.22744
          1.22661 1.22599 1.22552 1.22517 1.2249 1.22471 1.22456 1.22446 1.22438 1.22432 1.22428 1.22425
          1.22423 1.22421 1.2242 1.22419 1.22419 1.22418 1.22418 1.22418 1.22418 1.22417 1.22417 1.22417
          1.22417 1.22417 1.22417 1.22417 1.22417 1.22417 1.22417 1.22417 1.22435 1.34511 1.33122 1.31805
          1.30536 1.29342 1.2868 1.27689 1.26814 1.25653 1.24979 1.2444 1.23998 1.23638 1.23349 1.23121
          1.22941 1.22802 1.22694 1.22612 1.2255 1.22503 1.22467 1.22441 1.22421 1.22407 1.22396 1.22388
          1.22383 1.22379 1.22376 1.22373 1.22372 1.22371 1.2237 1.22369 1.22369 1.22369 1.22368 1.22368
          1.22368 1.22368 1.22368 1.22368 1.22368 1.22368 1.22368 1.22368 1.22368 1.22368 1.22366 1.22411
        </DataArray>
        <DataArray type="Float32" Name="saturation_w" NumberOfComponents="1" format="ascii">
          0.119993 0.12 0.119992 0.12 0.12 0.12 0.12 0.12 0.12 0.12 0.12 0.12
          0.12 0.12 0.12 0.12 0.12 0.12 0.12 0.12 0.12 0.12 0.12 0.12
          0.12 0.12 0.12 0.12 0.12 0.12 0.12 0.12 0.12 0.12 0.12 0.12
          0.12 0.12 0.12 0.12 0.12 0.12 0.12 0.12 0.12 0.12 0.12 0.12
          0.12 0.12 0.12 0.12 0.12 0.12 0.12 0.12 0.12 0.12 0.12 0.12
          0.12 0.12 0.12 0.12 0.12 0.12 0.12 0.12 0.12 0.12 0.12 0.12
          0.12 0.12 0.12 0.12 0.12 0.12 0.12 0.12 0.12 0.12 0.12 0.12
          0.12 0.12 0.12 0.12 0.12 0.12 0.12 0.12 0.12 0.12 0.12 0.12
          0.12 0.12 0.12 0.12 0.12 0.12 0.119992 0.12 0.12 0.12 0.12 0.12
          0.12 0.12 0.12 0.12 0.12 0.12 0.12 0.12 0.12 0.12 0.12 0.12
          0.12 0.12 0.12 0.12 0.12 0.12 0.12 0.12 0.12 0.12 0.12 0.12
          0.12 0.12 0.12 0.12 0.12 0.12 0.12 0.12 0.12 0.12 0.12 0.12
          0.12 0.12 0.12 0.12 0.12 0.12 0.12 0.12 0.12 0.119991 0.12 0.12
          0.12 0.12 0.120001 0.120001 0.120001 0.12 0.12 0.12 0.12 0.12 0.12 0.12
          0.12 0.12 0.12 0.12 0.12 0.12 0.12 0.12 0.12 0.12 0.12 0.12
          0.12 0.12 0.12 0.12 0.12 0.12 0.12 0.12 0.12 0.12 0.12 0.12
          0.12 0.12 0.12 0.12 0.12 0.12 0.12 0.12 0.12 0.12 0.12 0.119999
        </DataArray>
        <DataArray type="Float32" Name="saturation_n" NumberOfComponents="1" format="ascii">
          0 0 0 0 0 0 0 0 0 0 0 0
          0 0 0 0 0 0 0 0 0 0 0 0
          0 0 0 0 0 0 0 0 0 0 0 0
          0 0 0 0 0 0 0 0 0 0 0 0
          0 0 0 0 0 0 0 0 0 0 0 0
          0 0 0 0 0 0 0 0 0 0 0 0
          0 0 0 0 0 0 0 0 0 0 0 0
          0 0 0 0 0 0 0 0 0 0 0 0
          0 0 0 0 0 0 0 0 0 0 0 0
          0 0 0 0 0 0 0 0 0 0 0 0
          0 0 0 0 0 0 0 0 0 0 0 0
          0 0 0 0 0 0 0 0 0 0 0 0
          0 0 0 0 0 0 0 0 0 0 0 0
          0 0 0.000604703 0.00122063 0.00122059 0 0 0 0 0 0 0
          0 0 0 0 0 0 0 0 0 0 0 0
          0 0 0 0 0 0 0 0 0 0 0 0
          0 0 0 0 0 0 0 0 0 0 0 0
        </DataArray>
        <DataArray type="Float32" Name="saturation_g" NumberOfComponents="1" format="ascii">
          0.880007 0.88 0.880008 0.88 0.88 0.88 0.88 0.88 0.88 0.88 0.88 0.88
          0.88 0.88 0.88 0.88 0.88 0.88 0.88 0.88 0.88 0.88 0.88 0.88
          0.88 0.88 0.88 0.88 0.88 0.88 0.88 0.88 0.88 0.88 0.88 0.88
          0.88 0.88 0.88 0.88 0.88 0.88 0.88 0.88 0.88 0.88 0.88 0.88
          0.88 0.88 0.88 0.88 0.88 0.88 0.88 0.88 0.88 0.88 0.88 0.88
          0.88 0.88 0.88 0.88 0.88 0.88 0.88 0.88 0.88 0.88 0.88 0.88
          0.88 0.88 0.88 0.88 0.88 0.88 0.88 0.88 0.88 0.88 0.88 0.88
          0.88 0.88 0.88 0.88 0.88 0.88 0.88 0.88 0.88 0.88 0.88 0.88
          0.88 0.88 0.88 0.88 0.88 0.88 0.880008 0.88 0.88 0.88 0.88 0.88
          0.88 0.88 0.88 0.88 0.88 0.88 0.88 0.88 0.88 0.88 0.88 0.88
          0.88 0.88 0.88 0.88 0.88 0.88 0.88 0.88 0.88 0.88 0.88 0.88
          0.88 0.88 0.88 0.88 0.88 0.88 0.88 0.88 0.88 0.88 0.88 0.88
          0.88 0.88 0.88 0.88 0.88 0.88 0.88 0.88 0.88 0.880009 0.88 0.88
          0.88 0.88 0.879395 0.878779 0.878779 0.88 0.88 0.88 0.88 0.88 0.88 0.88
          0.88 0.88 0.88 0.88 0.88 0.88 0.88 0.88 0.88 0.88 0.88 0.88
          0.88 0.88 0.88 0.88 0.88 0.88 0.88 0.88 0.88 0.88 0.88 0.88
          0.88 0.88 0.88 0.88 0.88 0.88 0.88 0.88 0.88 0.88 0.88 0.880001
        </DataArray>
        <DataArray type="Float32" Name="relativePerm_w" NumberOfComponents="1" format="ascii">
          0 1.30111e-21 0 1.25274e-21 1.24421e-21 1.22095e-21 9.54398e-22 9.33664e-22 6.61493e-22 6.45242e-22 4.27392e-22 4.15283e-22
          2.60214e-22 2.51494e-22 1.50512e-22 1.44487e-22 8.31674e-23 7.91293e-23 4.41718e-23 4.15552e-23 2.26386e-23 2.09836e-23 1.12514e-23 1.02288e-23
          5.45278e-24 4.8334e-24 2.59228e-24 2.22314e-24 1.21696e-24 9.99657e-25 5.6839e-25 4.41475e-25 2.66352e-25 1.9245e-25 1.26426e-25 8.32786e-26
          6.14257e-26 3.60052e-26 3.08938e-26 1.56699e-26 1.6266e-26 6.92552e-27 9.05866e-27 3.1394e-27 5.38036e-27 1.47603e-27 3.42556e-27 7.28121e-28
          2.34043e-27 3.8113e-28 1.71144e-27 2.13695e-28 1.33169e-27 1.29158e-28 1.09386e-27 8.43539e-29 9.4021e-28 5.9401e-29 8.38486e-28 4.48331e-29
          7.69765e-28 3.59621e-29 7.22657e-28 3.03705e-29 6.89987e-28 2.67369e-29 6.67135e-28 2.43176e-29 6.51176e-28 2.26858e-29 6.39877e-28 2.15589e-29
          6.31942e-28 2.07901e-29 6.2637e-28 2.02477e-29 6.22445e-28 1.98782e-29 6.19707e-28 1.96192e-29 6.17807e-28 1.94412e-29 6.1658e-28 1.93228e-29
          6.15711e-28 1.92444e-29 6.15223e-28 1.91984e-29 6.14977e-28 1.91726e-29 6.14884e-28 1.91659e-29 6.14929e-28 1.91783e-29 6.15421e-28 1.91661e-29
          6.13279e-28 1.92569e-29 6.85682e-28 2.14401e-29 4.76045e-29 6.47284e-31 0 1.19757e-21 1.19718e-21 9.13421e-22 6.29271e-22 4.06281e-22
          2.44571e-22 1.39591e-22 7.52481e-23 3.90487e-23 1.94126e-23 9.27108e-24 4.26357e-24 1.89147e-24 8.10394e-25 3.35389e-25 1.33934e-25 5.14605e-26
          1.89191e-26 6.59181e-27 2.14131e-27 6.30257e-28 1.59339e-28 3.09353e-29 3.41286e-30 4.74547e-32 0 0 0 0
          0 0 0 0 0 0 0 0 0 0 0 0
          0 0 0 0 0 0 0 0 0 0 1.14959e-21 1.17461e-21
          8.93262e-22 6.1353e-22 1.49e-20 1.38843e-20 1.19853e-20 1.57886e-22 3.82825e-23 1.79478e-23 8.3759e-24 3.74095e-24 1.59504e-24 6.47075e-25
          2.48137e-25 8.88958e-26 2.91439e-26 8.42094e-27 1.99087e-27 3.24015e-28 2.04834e-29 0 0 0 0 0
          0 0 0 0 0 0 0 0 0 0 0 0
          0 0 0 0 0 0 0 0 0 0 0 0
        </DataArray>
        <DataArray type="Float32" Name="relativePerm_n" NumberOfComponents="1" format="ascii">
          0 0 0 0 0 0 0 0 0 0 0 0
          0 0 0 0 0 0 0 0 0 0 0 0
          0 0 0 0 0 0 0 0 0 0 0 0
          0 0 0 0 0 0 0 0 0 0 0 0
          0 0 0 0 0 0 0 0 0 0 0 0
          0 0 0 0 0 0 0 0 0 0 0 0
          0 0 0 0 0 0 0 0 0 0 0 0
          0 0 0 0 0 0 0 0 0 0 0 0
          0 0 0 0 0 0 0 0 0 0 0 0
          0 0 0 0 0 0 0 0 0 0 0 0
          0 0 0 0 0 0 0 0 0 0 0 0
          0 0 0 0 0 0 0 0 0 0 0 0
          0 0 0 0 0 0 0 0 0 0 0 0
          0 0 5.43471e-11 5.01918e-10 5.01841e-10 0 0 0 0 0 0 0
          0 0 0 0 0 0 0 0 0 0 0 0
          0 0 0 0 0 0 0 0 0 0 0 0
          0 0 0 0 0 0 0 0 0 0 0 0
        </DataArray>
        <DataArray type="Float32" Name="relativePerm_g" NumberOfComponents="1" format="ascii">
          0.907723 0.907713 0.907723 0.907713 0.907713 0.907713 0.907714 0.907714 0.907714 0.907714 0.907714 0.907714
          0.907714 0.907714 0.907714 0.907714 0.907714 0.907714 0.907714 0.907714 0.907714 0.907714 0.907714 0.907714
          0.907714 0.907714 0.907714 0.907714 0.907714 0.907714 0.907714 0.907714 0.907714 0.907714 0.907714 0.907714
          0.907714 0.907714 0.907714 0.907714 0.907714 0.907714 0.907714 0.907714 0.907714 0.907714 0.907714 0.907714
          0.907714 0.907714 0.907714 0.907714 0.907714 0.907714 0.907714 0.907714 0.907714 0.907714 0.907714 0.907714
          0.907714 0.907714 0.907714 0.907714 0.907714 0.907714 0.907714 0.907714 0.907714 0.907714 0.907714 0.907714
          0.907714 0.907714 0.907714 0.907714 0.907714 0.907714 0.907714 0.907714 0.907714 0.907714 0.907714 0.907714
          0.907714 0.907714 0.907714 0.907714 0.907714 0.907714 0.907714 0.907714 0.907714 0.907714 0.907714 0.907714
          0.907714 0.907714 0.907714 0.907714 0.907714 0.907714 0.907724 0.907713 0.907713 0.907714 0.907714 0.907714
          0.907714 0.907714 0.907714 0.907714 0.907714 0.907714 0.907714 0.907714 0.907714 0.907714 0.907714 0.907714
          0.907714 0.907714 0.907714 0.907714 0.907714 0.907714 0.907714 0.907714 0.907714 0.907714 0.907714 0.907714
          0.907714 0.907714 0.907714 0.907714 0.907714 0.907714 0.907714 0.907714 0.907714 0.907714 0.907714 0.907714
          0.907714 0.907714 0.907714 0.907714 0.907714 0.907714 0.907714 0.907714 0.907714 0.907725 0.907713 0.907713
          0.907714 0.907714 0.90697 0.906212 0.906212 0.907714 0.907714 0.907714 0.907714 0.907714 0.907714 0.907714
          0.907714 0.907714 0.907714 0.907714 0.907714 0.907714 0.907714 0.907714 0.907714 0.907714 0.907714 0.907714
          0.907714 0.907714 0.907714 0.907714 0.907714 0.907714 0.907714 0.907714 0.907714 0.907714 0.907714 0.907714
          0.907714 0.907714 0.907714 0.907714 0.907714 0.907714 0.907714 0.907714 0.907714 0.907714 0.907714 0.907715
        </DataArray>
        <DataArray type="Float32" Name="porosity" NumberOfComponents="1" format="ascii">
          0.4 0.4 0.4 0.4 0.4 0.4 0.4 0.4 0.4 0.4 0.4 0.4
          0.4 0.4 0.4 0.4 0.4 0.4 0.4 0.4 0.4 0.4 0.4 0.4
          0.4 0.4 0.4 0.4 0.4 0.4 0.4 0.4 0.4 0.4 0.4 0.4
          0.4 0.4 0.4 0.4 0.4 0.4 0.4 0.4 0.4 0.4 0.4 0.4
          0.4 0.4 0.4 0.4 0.4 0.4 0.4 0.4 0.4 0.4 0.4 0.4
          0.4 0.4 0.4 0.4 0.4 0.4 0.4 0.4 0.4 0.4 0.4 0.4
          0.4 0.4 0.4 0.4 0.4 0.4 0.4 0.4 0.4 0.4 0.4 0.4
          0.4 0.4 0.4 0.4 0.4 0.4 0.4 0.4 0.4 0.4 0.4 0.4
          0.4 0.4 0.4 0.4 0.4 0.4 0.4 0.4 0.4 0.4 0.4 0.4
          0.4 0.4 0.4 0.4 0.4 0.4 0.4 0.4 0.4 0.4 0.4 0.4
          0.4 0.4 0.4 0.4 0.4 0.4 0.4 0.4 0.4 0.4 0.4 0.4
          0.4 0.4 0.4 0.4 0.4 0.4 0.4 0.4 0.4 0.4 0.4 0.4
          0.4 0.4 0.4 0.4 0.4 0.4 0.4 0.4 0.4 0.4 0.4 0.4
          0.4 0.4 0.4 0.4 0.4 0.4 0.4 0.4 0.4 0.4 0.4 0.4
          0.4 0.4 0.4 0.4 0.4 0.4 0.4 0.4 0.4 0.4 0.4 0.4
          0.4 0.4 0.4 0.4 0.4 0.4 0.4 0.4 0.4 0.4 0.4 0.4
          0.4 0.4 0.4 0.4 0.4 0.4 0.4 0.4 0.4 0.4 0.4 0.4
        </DataArray>
        <DataArray type="Float32" Name="moleFrac_w^H2O" NumberOfComponents="1" format="ascii">
          0.999984 0.999984 0.999984 0.999984 0.999984 0.999984 0.999984 0.999984 0.999984 0.999984 0.999984 0.999984
          0.999984 0.999984 0.999985 0.999985 0.999985 0.999985 0.999985 0.999985 0.999985 0.999985 0.999985 0.999985
          0.999985 0.999985 0.999985 0.999985 0.999985 0.999985 0.999985 0.999985 0.999985 0.999985 0.999985 0.999985
          0.999985 0.999985 0.999985 0.999985 0.999985 0.999985 0.999985 0.999985 0.999985 0.999985 0.999985 0.999985
          0.999985 0.999985 0.999985 0.999985 0.999985 0.999985 0.999985 0.999985 0.999985 0.999985 0.999985 0.999985
          0.999985 0.999985 0.999985 0.999985 0.999985 0.999985 0.999985 0.999985 0.999985 0.999985 0.999985 0.999985
          0.999985 0.999985 0.999985 0.999985 0.999985 0.999985 0.999985 0.999985 0.999985 0.999985 0.999985 0.999985
          0.999985 0.999985 0.999985 0.999985 0.999985 0.999985 0.999985 0.999985 0.999985 0.999985 0.999985 0.999985
          0.999985 0.999985 0.999985 0.999985 0.999985 0.999985 0.999984 0.999984 0.999984 0.999984 0.999984 0.999984
          0.999984 0.999985 0.999985 0.999985 0.999985 0.999985 0.999985 0.999985 0.999985 0.999985 0.999985 0.999985
          0.999985 0.999985 0.999985 0.999985 0.999985 0.999985 0.999985 0.999985 0.999985 0.999985 0.999985 0.999985
          0.999985 0.999985 0.999985 0.999985 0.999985 0.999985 0.999985 0.999985 0.999985 0.999985 0.999985 0.999985
          0.999985 0.999985 0.999985 0.999985 0.999985 0.999985 0.999985 0.999985 0.999985 0.999984 0.999984 0.999984
          0.999984 0.999984 0.999981 0.999981 0.999981 0.999984 0.999985 0.999985 0.999985 0.999985 0.999985 0.999985
          0.999985 0.999985 0.999985 0.999985 0.999985 0.999985 0.999985 0.999985 0.999985 0.999985 0.999985 0.999985
          0.999985 0.999985 0.999985 0.999985 0.999985 0.999985 0.999985 0.999985 0.999985 0.999985 0.999985 0.999985
          0.999985 0.999985 0.999985 0.999985 0.999985 0.999985 0.999985 0.999985 0.999985 0.999985 0.999985 0.999985
        </DataArray>
        <DataArray type="Float32" Name="moleFrac_w^mesitylene" NumberOfComponents="1" format="ascii">
          -2.58153e-18 1.46105e-18 -7.37438e-19 7.30224e-19 7.23308e-19 7.2302e-19 1.07456e-18 -6.08675e-18 -1.06478e-18 -1.77392e-18 3.12862e-16 1.19741e-12
          4.18017e-16 1.15466e-12 3.33304e-16 8.81996e-13 2.20647e-17 6.15951e-14 2.05802e-18 2.44223e-15 1.70767e-18 6.52069e-17 1.70162e-18 2.04113e-18
          -1.01803e-18 -3.39206e-19 1.01566e-18 6.76837e-19 1.35172e-18 2.36456e-18 6.74878e-19 -6.74608e-19 -1.01117e-18 -3.03231e-18 1.01029e-18 2.01978e-18
          2.01924e-18 1.00921e-18 -3.36369e-19 -1.0087e-18 1.00872e-18 -1.68053e-18 -6.72287e-19 -3.36009e-19 -1.00822e-18 3.35937e-19 1.00805e-18 1.00765e-18
          6.71958e-19 2.35091e-18 0 0 2.01557e-18 2.35056e-18 1.67956e-18 6.71557e-19 1.67951e-18 3.0219e-18 1.67947e-18 1.00728e-18
          6.71775e-19 1.00726e-18 -1.34353e-18 1.67874e-18 6.7176e-19 1.00724e-18 -1.67939e-18 -1.34297e-18 0 1.00723e-18 -2.01525e-18 2.35018e-18
          -3.35874e-19 6.7148e-19 -6.71748e-19 6.71479e-19 3.35873e-19 -6.71478e-19 -6.71746e-19 -6.71477e-19 -1.00762e-18 1.00722e-18 1.00762e-18 0
          -6.71745e-19 1.00721e-18 -1.00762e-18 1.00721e-18 1.00762e-18 6.71476e-19 -1.00762e-18 -3.35738e-19 -6.71745e-19 6.71476e-19 6.71745e-19 1.00721e-18
          -1.34349e-18 2.01443e-18 6.71754e-19 1.34296e-18 2.01453e-18 -3.35691e-19 0 0 -7.22729e-19 -7.15801e-19 1.75275e-14 3.27477e-09
          2.71261e-09 2.36603e-09 1.6186e-10 6.38198e-12 1.68146e-13 3.21145e-15 4.61136e-17 2.36798e-18 2.02595e-18 0 1.34715e-18 -3.36495e-19
          1.00881e-18 -3.361e-19 1.67986e-18 -6.71749e-19 3.35803e-19 6.71499e-19 1.00713e-18 -3.35681e-19 2.34962e-18 1.00693e-18 -3.35633e-19 -2.34937e-18
          -1.00686e-18 3.35614e-19 -6.71222e-19 1.67805e-18 -1.34243e-18 2.34924e-18 2.34924e-18 -1.00681e-18 -1.34242e-18 6.71208e-19 -1.00681e-18 0
          -6.71208e-19 6.71208e-19 -1.00681e-18 -6.71207e-19 1.67802e-18 0 0 1.00681e-18 -1.00695e-18 3.68605e-19 -2.5537e-18 -1.44488e-18
          5.72412e-18 4.06879e-11 3.40289e-06 3.40291e-06 3.40294e-06 2.51997e-07 9.95311e-09 2.62728e-10 5.00749e-12 7.11278e-14 7.60832e-16 7.76304e-18
          -6.74068e-19 -1.00996e-18 6.7272e-19 -1.00841e-18 6.7193e-19 3.6942e-18 -1.00722e-18 -6.71337e-19 6.7123e-19 0 1.00664e-18 1.00658e-18
          1.00653e-18 1.0065e-18 1.00647e-18 -3.35484e-19 1.00644e-18 6.70954e-19 1.67737e-18 6.70946e-19 -6.70944e-19 1.00641e-18 1.00641e-18 6.7094e-19
          -3.3547e-19 1.00641e-18 1.67735e-18 -3.35469e-19 -6.70939e-19 1.00641e-18 2.01282e-18 -6.70939e-19 1.00641e-18 0 0 1.67794e-18
        </DataArray>
        <DataArray type="Float32" Name="moleFrac_w^Air" NumberOfComponents="1" format="ascii">
          1.64477e-05 1.62886e-05 1.64445e-05 1.62818e-05 1.61258e-05 1.61193e-05 1.59695e-05 1.5963e-05 1.58224e-05 1.5816e-05 1.56871e-05 1.56807e-05
          1.5565e-05 1.55587e-05 1.54572e-05 1.5451e-05 1.53639e-05 1.53576e-05 1.52846e-05 1.52784e-05 1.52184e-05 1.52122e-05 1.51638e-05 1.51576e-05
          1.51195e-05 1.51134e-05 1.50839e-05 1.50778e-05 1.50558e-05 1.50497e-05 1.50336e-05 1.50276e-05 1.50165e-05 1.50104e-05 1.50032e-05 1.49971e-05
          1.49931e-05 1.4987e-05 1.49854e-05 1.49793e-05 1.49796e-05 1.49735e-05 1.49752e-05 1.49692e-05 1.4972e-05 1.49659e-05 1.49696e-05 1.49635e-05
          1.49678e-05 1.49617e-05 1.49665e-05 1.49604e-05 1.49655e-05 1.49595e-05 1.49648e-05 1.49588e-05 1.49643e-05 1.49582e-05 1.49639e-05 1.49579e-05
          1.49637e-05 1.49576e-05 1.49635e-05 1.49574e-05 1.49633e-05 1.49573e-05 1.49632e-05 1.49572e-05 1.49632e-05 1.49571e-05 1.49631e-05 1.49571e-05
          1.49631e-05 1.4957e-05 1.49631e-05 1.4957e-05 1.4963e-05 1.4957e-05 1.4963e-05 1.4957e-05 1.4963e-05 1.49569e-05 1.4963e-05 1.49569e-05
          1.4963e-05 1.49569e-05 1.4963e-05 1.49569e-05 1.4963e-05 1.49569e-05 1.4963e-05 1.49569e-05 1.4963e-05 1.49569e-05 1.4963e-05 1.49569e-05
          1.4963e-05 1.49569e-05 1.49632e-05 1.4957e-05 1.49577e-05 1.49548e-05 1.64424e-05 1.62752e-05 1.61128e-05 1.59565e-05 1.58096e-05 1.56744e-05
          1.55524e-05 1.54447e-05 1.53514e-05 1.52722e-05 1.5206e-05 1.51515e-05 1.51072e-05 1.50717e-05 1.50436e-05 1.50215e-05 1.50043e-05 1.49911e-05
          1.49809e-05 1.49732e-05 1.49674e-05 1.49631e-05 1.49598e-05 1.49574e-05 1.49557e-05 1.49544e-05 1.49534e-05 1.49527e-05 1.49522e-05 1.49518e-05
          1.49515e-05 1.49513e-05 1.49512e-05 1.49511e-05 1.4951e-05 1.4951e-05 1.4951e-05 1.49509e-05 1.49509e-05 1.49509e-05 1.49509e-05 1.49509e-05
          1.49509e-05 1.49509e-05 1.49509e-05 1.49509e-05 1.49509e-05 1.49509e-05 1.49509e-05 1.49509e-05 1.4953e-05 1.64393e-05 1.62684e-05 1.61063e-05
          1.59501e-05 1.58032e-05 1.56511e-05 1.55291e-05 1.54214e-05 1.53439e-05 1.5266e-05 1.51999e-05 1.51454e-05 1.51011e-05 1.50656e-05 1.50375e-05
          1.50154e-05 1.49982e-05 1.4985e-05 1.49749e-05 1.49672e-05 1.49614e-05 1.4957e-05 1.49538e-05 1.49514e-05 1.49496e-05 1.49483e-05 1.49473e-05
          1.49466e-05 1.49461e-05 1.49458e-05 1.49455e-05 1.49453e-05 1.49452e-05 1.49451e-05 1.4945e-05 1.49449e-05 1.49449e-05 1.49449e-05 1.49448e-05
          1.49448e-05 1.49448e-05 1.49448e-05 1.49448e-05 1.49448e-05 1.49448e-05 1.49448e-05 1.49448e-05 1.49448e-05 1.49448e-05 1.49446e-05 1.49501e-05
        </DataArray>
        <DataArray type="Float32" Name="moleFrac_n^H2O" NumberOfComponents="1" format="ascii">
          1.09016e-05 1.09016e-05 1.09016e-05 1.09016e-05 1.09016e-05 1.09016e-05 1.09016e-05 1.09016e-05 1.09017e-05 1.09017e-05 1.09017e-05 1.09017e-05
          1.09017e-05 1.09017e-05 1.09017e-05 1.09017e-05 1.09017e-05 1.09017e-05 1.09017e-05 1.09017e-05 1.09017e-05 1.09017e-05 1.09017e-05 1.09017e-05
          1.09017e-05 1.09017e-05 1.09017e-05 1.09017e-05 1.09017e-05 1.09017e-05 1.09017e-05 1.09017e-05 1.09017e-05 1.09017e-05 1.09017e-05 1.09017e-05
          1.09017e-05 1.09017e-05 1.09017e-05 1.09017e-05 1.09017e-05 1.09017e-05 1.09017e-05 1.09017e-05 1.09017e-05 1.09017e-05 1.09017e-05 1.09017e-05
          1.09017e-05 1.09017e-05 1.09017e-05 1.09017e-05 1.09017e-05 1.09017e-05 1.09017e-05 1.09017e-05 1.09017e-05 1.09017e-05 1.09017e-05 1.09017e-05
          1.09017e-05 1.09017e-05 1.09017e-05 1.09017e-05 1.09017e-05 1.09017e-05 1.09017e-05 1.09017e-05 1.09017e-05 1.09017e-05 1.09017e-05 1.09017e-05
          1.09017e-05 1.09017e-05 1.09017e-05 1.09017e-05 1.09017e-05 1.09017e-05 1.09017e-05 1.09017e-05 1.09017e-05 1.09017e-05 1.09017e-05 1.09017e-05
          1.09017e-05 1.09017e-05 1.09017e-05 1.09017e-05 1.09017e-05 1.09017e-05 1.09017e-05 1.09017e-05 1.09017e-05 1.09017e-05 1.09017e-05 1.09017e-05
          1.09017e-05 1.09017e-05 1.09017e-05 1.09017e-05 1.09017e-05 1.09017e-05 1.09016e-05 1.09016e-05 1.09016e-05 1.09016e-05 1.09017e-05 1.09017e-05