<?xml version="1.0"?>
<VTKFile type="UnstructuredGrid" version="0.1" byte_order="LittleEndian">
  <UnstructuredGrid>
    <Piece NumberOfCells="150" NumberOfPoints="204">
      <PointData Scalars="pressure_w">
        <DataArray type="Float32" Name="pressure_w" NumberOfComponents="1" format="ascii">
          122475 141468 108271 107310 138740 106239 137775 105098 136721 104071 135778 103130
          134931 102285 134190 101542 133554 100904 133020 100367 132580 99921.8 132221 99558.6
          131934 99266.3 131705 99034 131527 98851.4 131388 98709.5 131281 98600.1 131200 98516.6
          131138 98453.3 131092 98405.6 131057 98370 131032 98343.5 131013 98323.9 130999 98309.6
          130989 98299.1 130982 98291.5 130976 98286.2 130973 98282.4 130970 98279.9 130969 98278.5
          130968 98277.8 130968 98277.9 130969 98278.7 130971 98280.2 130973 98282.6 130976 98285.9
          130981 98290.5 130987 98296.5 130994 98304.3 131004 98314.2 131016 98326.8 131032 98342.3
          131051 98361.3 131073 98384.2 131100 98411.2 131132 98442.6 131166 98478.5 131265 98543.6
          131308 98822.4 132806 98574.8 112591 98437.2 96891.3 95715.2 94571.6 93478.7 92450.9 91510.2
          90664.8 89922.5 89283.8 88746.9 88302 87938.8 87646.4 87414 87231.4 87089.4 86980 86896.4
          86833.1 86785.4 86749.8 86723.3 86703.7 86689.3 86678.9 86671.3 86665.9 86662.2 86659.7 86658.2
          86657.5 86657.6 86658.4 86659.9 86662.3 86665.7 86670.2 86676.2 86684 86694 86706.5 86722
          86741 86763.9 86791 86822.4 86858.1 86896.2 86915.4 86985.3 87056.3 96873.6 95670 94529.2
          93436 92408.9 91469.3 90404.1 89662.2 89242.8 88706.5 88261.7 87898.6 87606.3 87374 87191.4
          87049.4 86940.1 86856.5 86793.2 86745.5 86709.9 86683.4 86663.8 86649.5 86639 86631.4 86626.1
          86622.3 86619.8 86618.3 86617.7 86617.8 86618.5 86620.1 86622.4 86625.8 86630.4 86636.4 86644.2
          86654.1 86666.6 86682.2 86701.2 86724 86751.1 86782.5 86818.3 86854.4 86879.1 86942.6 87039.8
        </DataArray>
        <DataArray type="Float32" Name="pressure_n" NumberOfComponents="1" format="ascii">
          122475 141468 108271 107310 138740 106239 137775 105098 136721 104071 135778 103130
          134931 102285 134190 101542 133554 100904 133020 100367 132580 99921.8 132221 99558.6
          131934 99266.3 131705 99034 131527 98851.4 131388 98709.5 131281 98600.1 131200 98516.6
          131138 98453.3 131092 98405.6 131057 98370 131032 98343.5 131013 98323.9 130999 98309.6
          130989 98299.1 130982 98291.5 130976 98286.2 130973 98282.4 130970 98279.9 130969 98278.5
          130968 98277.8 130968 98277.9 130969 98278.7 130971 98280.2 130973 98282.6 130976 98285.9
          130981 98290.5 130987 98296.5 130994 98304.3 131004 98314.2 131016 98326.8 131032 98342.3
          131051 98361.3 131073 98384.2 131100 98411.2 131132 98442.6 131166 98478.5 131265 98543.6
          131308 98822.4 132806 98574.8 112591 98437.2 96891.3 95715.2 94571.6 93478.7 92450.9 91510.2
          90664.8 89922.5 89283.8 88746.9 88302 87938.8 87646.4 87414 87231.4 87089.4 86980 86896.4
          86833.1 86785.4 86749.8 86723.3 86703.7 86689.3 86678.9 86671.3 86665.9 86662.2 86659.7 86658.2
          86657.5 86657.6 86658.4 86659.9 86662.3 86665.7 86670.2 86676.2 86684 86694 86706.5 86722
          86741 86763.9 86791 86822.4 86858.1 86896.2 86915.4 86985.3 87056.3 96873.6 95670 94529.2
          93436 92408.9 91469.3 90632.6 89890.7 89242.8 88706.5 88261.7 87898.6 87606.3 87374 87191.4
          87049.4 86940.1 86856.5 86793.2 86745.5 86709.9 86683.4 86663.8 86649.5 86639 86631.4 86626.1
          86622.3 86619.8 86618.3 86617.7 86617.8 86618.5 86620.1 86622.4 86625.8 86630.4 86636.4 86644.2
          86654.1 86666.6 86682.2 86701.2 86724 86751.1 86782.5 86818.3 86854.4 86879.1 86942.6 87039.8
        </DataArray>
        <DataArray type="Float32" Name="pressure_g" NumberOfComponents="1" format="ascii">
          123781 142742 109813 108688 140018 107583 139053 106444 138001 105417 137058 104476
          136212 103630 135471 102887 134836 102248 134303 101711 133863 101266 133505 100903
          133217 100611 132989 100378 132811 100196 132672 100054 132565 99944.4 132484 99860.8
          132422 99797.5 132376 99749.8 132342 99714.2 132316 99687.7 132297 99668.1 132283 99653.7
          132273 99643.3 132266 99635.7 132261 99630.3 132257 99626.6 132255 99624.1 132253 99622.6
          132253 99621.9 132253 99622 132254 99622.8 132255 99624.3 132257 99626.7 132261 99630.1
          132265 99634.6 132271 99640.6 132279 99648.4 132288 99658.4 132301 99670.9 132316 99686.4
          132335 99705.5 132358 99728.3 132385 99755.4 132416 99786.8 132450 99822.6 132549 99887.6
          132592 100165 134089 99949.2 113895 99980.8 109816 108640 107496 106403 105375 104435
          103589 102847 102208 101671 101226 100863 100571 100339 100156 100014 99904.5 99821
          99757.6 99710 99674.3 99647.8 99628.2 99613.9 99603.4 99595.8 99590.4 99586.7 99584.2 99582.7
          99582.1 99582.1 99582.9 99584.5 99586.8 99590.2 99594.8 99600.8 99608.6 99618.5 99631 99646.6
          99665.6 99688.4 99715.5 99746.9 99782.7 99820.7 99839.9 99909.8 99980.9 109798 108594 107454
          106360 105333 104394 103548 102806 102167 101631 101186 100823 100531 100298 100116
          99974 99864.6 99781.1 99717.7 99670.1 99634.4 99607.9 99588.4 99574 99563.5 99556 99550.6
          99546.8 99544.4 99542.9 99542.2 99542.3 99543.1 99544.6 99547 99550.3 99554.9 99560.9 99568.7
          99578.6 99591.2 99606.7 99625.7 99648.5 99675.6 99707 99742.8 99778.9 99803.6 99867.1 99964.3
        </DataArray>
        <DataArray type="Float32" Name="density_w" NumberOfComponents="1" format="ascii">
          999.723 999.734 999.715 999.715 999.732 999.714 999.732 999.713 999.731 999.713 999.731 999.712
          999.73 999.712 999.73 999.711 999.729 999.711 999.729 999.711 999.729 999.71 999.729 999.71
          999.729 999.71 999.728 999.71 999.728 999.71 999.728 999.71 999.728 999.71 999.728 999.71
          999.728 999.709 999.728 999.709 999.728 999.709 999.728 999.709 999.728 999.709 999.728 999.709
          999.728 999.709 999.728 999.709 999.728 999.709 999.728 999.709 999.728 999.709 999.728 999.709
          999.728 999.709 999.728 999.709 999.728 999.709 999.728 999.709 999.728 999.709 999.728 999.709
          999.728 999.709 999.728 999.709 999.728 999.709 999.728 999.709 999.728 999.709 999.728 999.709
          999.728 999.709 999.728 999.709 999.728 999.709 999.728 999.709 999.728 999.709 999.728 999.71
          999.728 999.71 999.729 999.71 999.718 999.709 999.71 999.709 999.708 999.708 999.707 999.707
          999.706 999.706 999.705 999.705 999.705 999.705 999.704 999.704 999.704 999.704 999.704 999.704
          999.704 999.704 999.704 999.704 999.704 999.704 999.704 999.704 999.704 999.704 999.704 999.704
          999.704 999.704 999.704 999.704 999.704 999.704 999.704 999.704 999.704 999.704 999.704 999.704
          999.704 999.704 999.704 999.704 999.704 999.704 999.704 999.704 999.704 999.71 999.709 999.708
          999.708 999.707 999.726 999.725 999.725 999.707 999.705 999.705 999.705 999.704 999.704 999.704
          999.704 999.704 999.704 999.704 999.704 999.704 999.704 999.704 999.704 999.704 999.704 999.704
          999.704 999.704 999.704 999.704 999.704 999.704 999.704 999.704 999.704 999.704 999.704 999.704
          999.704 999.704 999.704 999.704 999.704 999.704 999.704 999.704 999.704 999.704 999.704 999.704
        </DataArray>
        <DataArray type="Float32" Name="density_n" NumberOfComponents="1" format="ascii">
          878.771 878.771 878.771 878.771 878.771 878.771 878.771 878.771 878.771 878.771 878.771 878.771
          878.771 878.771 878.771 878.771 878.771 878.771 878.771 878.771 878.771 878.771 878.771 878.771
          878.771 878.771 878.771 878.771 878.771 878.771 878.771 878.771 878.771 878.771 878.771 878.771
          878.771 878.771 878.771 878.771 878.771 878.771 878.771 878.771 878.771 878.771 878.771 878.771
          878.771 878.771 878.771 878.771 878.771 878.771 878.771 878.771 878.771 878.771 878.771 878.771
          878.771 878.771 878.771 878.771 878.771 878.771 878.771 878.771 878.771 878.771 878.771 878.771
          878.771 878.771 878.771 878.771 878.771 878.771 878.771 878.771 878.771 878.771 878.771 878.771
          878.771 878.771 878.771 878.771 878.771 878.771 878.771 878.771 878.771 878.771 878.771 878.771
          878.771 878.771 878.771 878.771 878.771 878.771 878.771 878.771 878.771 878.771 878.771 878.771
          878.771 878.771 878.771 878.771 878.771 878.771 878.771 878.771 878.771 878.771 878.771 878.771
          878.771 878.771 878.771 878.771 878.771 878.771 878.771 878.771 878.771 878.771 878.771 878.771
          878.771 878.771 878.771 878.771 878.771 878.771 878.771 878.771 878.771 878.771 878.771 878.771
          878.771 878.771 878.771 878.771 878.771 878.771 878.771 878.771 878.771 878.771 878.771 878.771
          878.771 878.771 878.771 878.771 878.771 878.771 878.771 878.771 878.771 878.771 878.771 878.771
          878.771 878.771 878.771 878.771 878.771 878.771 878.771 878.771 878.771 878.771 878.771 878.771
          878.771 878.771 878.771 878.771 878.771 878.771 878.771 878.771 878.771 878.771 878.771 878.771
          878.771 878.771 878.771 878.771 878.771 878.771 878.771 878.771 878.771 878.771 878.771 878.771
        </DataArray>
        <DataArray type="Float32" Name="density_g" NumberOfComponents="1" format="ascii">
          1.51695 1.7502 1.34514 1.33129 1.71668 1.31769 1.70482 1.30369 1.69187 1.29105 1.68028 1.27947
          1.66987 1.26907 1.66075 1.25994 1.65294 1.25208 1.64639 1.24547 1.64097 1.24 1.63657 1.23553
          1.63303 1.23193 1.63023 1.22907 1.62803 1.22683 1.62632 1.22508 1.62501 1.22373 1.62401 1.22271
          1.62325 1.22193 1.62268 1.22134 1.62226 1.2209 1.62195 1.22058 1.62171 1.22034 1.62154 1.22016
          1.62142 1.22003 1.62133 1.21994 1.62127 1.21987 1.62122 1.21982 1.62119 1.21979 1.62117 1.21978
          1.62117 1.21977 1.62117 1.21977 1.62118 1.21978 1.6212 1.2198 1.62122 1.21983 1.62126 1.21987
          1.62132 1.21992 1.62139 1.22 1.62149 1.22009 1.62161 1.22022 1.62176 1.22037 1.62195 1.22056
          1.62218 1.22079 1.62246 1.22108 1.62279 1.22141 1.62318 1.2218 1.6236 1.22224 1.62481 1.22304
          1.62534 1.22645 1.64375 1.22379 1.39534 1.22418 1.34516 1.3307 1.31663 1.30318 1.29054 1.27898
          1.26858 1.25945 1.25158 1.24498 1.23951 1.23504 1.23144 1.22858 1.22634 1.22459 1.22324 1.22222
          1.22144 1.22085 1.22041 1.22009 1.21984 1.21967 1.21954 1.21945 1.21938 1.21933 1.2193 1.21929
          1.21928 1.21928 1.21929 1.21931 1.21934 1.21938 1.21943 1.21951 1.2196 1.21973 1.21988 1.22007
          1.2203 1.22059 1.22092 1.22131 1.22174 1.22221 1.22245 1.22331 1.22418 1.34495 1.33014 1.31611
          1.30266 1.29003 1.28282 1.27242 1.26329 1.25141 1.24449 1.23901 1.23454 1.23095 1.22809 1.22584
          1.2241 1.22275 1.22172 1.22095 1.22036 1.21992 1.2196 1.21935 1.21918 1.21905 1.21896 1.21889
          1.21884 1.21881 1.21879 1.21879 1.21879 1.2188 1.21882 1.21885 1.21889 1.21894 1.21902 1.21911
          1.21923 1.21939 1.21958 1.21981 1.22009 1.22043 1.22081 1.22125 1.2217 1.222 1.22278 1.22398
        </DataArray>
        <DataArray type="Float32" Name="saturation_w" NumberOfComponents="1" format="ascii">
          0.975867 0.985045 0.892714 0.953134 0.984259 0.963954 0.984013 0.963259 0.983739 0.96342 0.983491 0.963488
          0.983265 0.963564 0.983064 0.963629 0.982891 0.963688 0.982744 0.963733 0.982622 0.963771 0.982521 0.963802
          0.982441 0.963827 0.982376 0.963847 0.982326 0.963863 0.982287 0.963875 0.982256 0.963884 0.982233 0.963892
          0.982216 0.963897 0.982203 0.963901 0.982193 0.963904 0.982185 0.963906 0.98218 0.963908 0.982176 0.963909
          0.982173 0.96391 0.982171 0.963911 0.98217 0.963911 0.982169 0.963911 0.982168 0.963912 0.982167 0.963912
          0.982167 0.963912 0.982167 0.963912 0.982168 0.963912 0.982168 0.963912 0.982169 0.963911 0.98217 0.963911
          0.982171 0.963911 0.982172 0.96391 0.982175 0.963909 0.982177 0.963909 0.982181 0.963908 0.982185 0.963906
          0.982191 0.963905 0.982197 0.963903 0.982205 0.9639 0.982214 0.963896 0.982224 0.963919 0.982252 0.963947
          0.982267 0.964339 0.982803 0.954074 0.976411 0.892454 0.119991 0.12 0.12 0.12 0.12 0.12
          0.12 0.12 0.12 0.12 0.12 0.12 0.12 0.12 0.12 0.12 0.12 0.12
          0.12 0.12 0.12 0.12 0.12 0.12 0.12 0.12 0.12 0.12 0.12 0.12
          0.12 0.12 0.12 0.12 0.12 0.12 0.12 0.12 0.12 0.12 0.12 0.12
          0.12 0.12 0.12 0.12 0.12 0.12 0.12 0.12 0.119999 0.11999 0.12 0.12
          0.12 0.12 0.120001 0.120001 0.120001 0.12 0.12 0.12 0.12 0.12 0.12 0.12
          0.12 0.12 0.12 0.12 0.12 0.12 0.12 0.12 0.12 0.12 0.12 0.12
          0.12 0.12 0.12 0.12 0.12 0.12 0.12 0.12 0.12 0.12 0.12 0.12
          0.12 0.12 0.12 0.12 0.12 0.12 0.12 0.12 0.12 0.12 0.12 0.119999
        </DataArray>
        <DataArray type="Float32" Name="saturation_n" NumberOfComponents="1" format="ascii">
          0 0 0 0 0 0 0 0 0 0 0 0
          0 0 0 0 0 0 0 0 0 0 0 0
          0 0 0 0 0 0 0 0 0 0 0 0
          0 0 0 0 0 0 0 0 0 0 0 0
          0 0 0 0 0 0 0 0 0 0 0 0
          0 0 0 0 0 0 0 0 0 0 0 0
          0 0 0 0 0 0 0 0 0 0 0 0
          0 0 0 0 0 0 0 0 0 0 0 0
          0 0 0 0 0 0 0 0 0 0 0 0
          0 0 0 0 0 0 0 0 0 0 0 0
          0 0 0 0 0 0 0 0 0 0 0 0
          0 0 0 0 0 0 0 0 0 0 0 0
          0 0 0 0 0 0 0 0 0 0 0 0
          0 0 0.000604634 0.00122061 0.00122057 0 0 0 0 0 0 0
          0 0 0 0 0 0 0 0 0 0 0 0
          0 0 0 0 0 0 0 0 0 0 0 0
          0 0 0 0 0 0 0 0 0 0 0 0
        </DataArray>
        <DataArray type="Float32" Name="saturation_g" NumberOfComponents="1" format="ascii">
          0.0241331 0.0149553 0.107286 0.046866 0.0157413 0.0360463 0.0159866 0.0367412 0.0162606 0.0365803 0.0165091 0.036512
          0.0167353 0.0364362 0.0169357 0.0363714 0.0171094 0.0363118 0.0172562 0.0362669 0.0173785 0.0362289 0.0174786 0.0361976
          0.0175593 0.0361725 0.0176236 0.0361526 0.0176741 0.036137 0.0177134 0.0361248 0.0177437 0.0361155 0.0177668 0.0361084
          0.0177843 0.0361031 0.0177975 0.036099 0.0178073 0.036096 0.0178146 0.0360938 0.01782 0.0360921 0.017824 0.0360909
          0.0178269 0.03609 0.0178289 0.0360894 0.0178304 0.036089 0.0178315 0.0360886 0.0178321 0.0360884 0.0178325 0.0360883
          0.0178327 0.0360883 0.0178327 0.0360883 0.0178325 0.0360883 0.017832 0.0360885 0.0178314 0.0360887 0.0178305 0.036089
          0.0178292 0.0360893 0.0178275 0.0360899 0.0178253 0.0360905 0.0178225 0.0360914 0.017819 0.0360925 0.0178146 0.0360938
          0.0178093 0.0360955 0.0178028 0.0360975 0.0177951 0.0360998 0.0177861 0.0361036 0.0177764 0.0360814 0.0177477 0.0360526
          0.0177332 0.0356606 0.0171975 0.0459263 0.0235891 0.107546 0.880009 0.88 0.88 0.88 0.88 0.88
          0.88 0.88 0.88 0.88 0.88 0.88 0.88 0.88 0.88 0.88 0.88 0.88
          0.88 0.88 0.88 0.88 0.88 0.88 0.88 0.88 0.88 0.88 0.88 0.88
          0.88 0.88 0.88 0.88 0.88 0.88 0.88 0.88 0.88 0.88 0.88 0.88
          0.88 0.88 0.88 0.88 0.88 0.88 0.88 0.88 0.880001 0.88001 0.88 0.88
          0.88 0.88 0.879395 0.878779 0.878779 0.88 0.88 0.88 0.88 0.88 0.88 0.88
          0.88 0.88 0.88 0.88 0.88 0.88 0.88 0.88 0.88 0.88 0.88 0.88
          0.88 0.88 0.88 0.88 0.88 0.88 0.88 0.88 0.88 0.88 0.88 0.88
          0.88 0.88 0.88 0.88 0.88 0.88 0.88 0.88 0.88 0.88 0.88 0.880001
        </DataArray>
        <DataArray type="Float32" Name="relativePerm_w" NumberOfComponents="1" format="ascii">
          0.828682 0.87927 0.524316 0.725287 0.874629 0.771544 0.873194 0.768431 0.871599 0.76915 0.87016 0.769455
          0.868855 0.769795 0.867703 0.770085 0.866708 0.770352 0.865869 0.770553 0.865173 0.770724 0.864603 0.770864
          0.864145 0.770977 0.86378 0.771066 0.863494 0.771136 0.863271 0.771191 0.8631 0.771232 0.862969 0.771264
          0.86287 0.771288 0.862796 0.771307 0.86274 0.77132 0.862699 0.77133 0.862668 0.771338 0.862646 0.771343
          0.86263 0.771347 0.862618 0.77135 0.86261 0.771352 0.862604 0.771353 0.8626 0.771354 0.862598 0.771355
          0.862597 0.771355 0.862597 0.771355 0.862598 0.771355 0.8626 0.771354 0.862604 0.771353 0.86261 0.771352
          0.862617 0.77135 0.862626 0.771348 0.862638 0.771345 0.862654 0.771341 0.862674 0.771336 0.862699 0.77133
          0.862729 0.771322 0.862766 0.771313 0.862809 0.771303 0.86286 0.771286 0.862915 0.771386 0.863077 0.771515
          0.86316 0.77328 0.866205 0.729132 0.831491 0.523599 0 1.00849e-21 1.02841e-21 7.69662e-22 5.10347e-22 3.15827e-22
          1.7679e-22 9.14635e-23 4.22617e-23 1.833e-23 7.14586e-24 2.41858e-24 6.6519e-25 1.2764e-25 1.05932e-26 1.58076e-30 0 0
          0 0 0 0 0 0 0 0 0 0 0 0
          0 0 0 0 0 0 0 0 0 0 0 0
          0 0 0 0 0 0 0 0 0 0 9.64155e-22 1.00793e-21
          7.52001e-22 4.96745e-22 1.37112e-20 1.26644e-20 1.08094e-20 1.02512e-22 1.7918e-23 6.41269e-24 2.0669e-24 5.23167e-25 8.41292e-26 3.88883e-27
          0 0 0 0 0 0 0 0 0 0 0 0
          0 0 0 0 0 0 0 0 0 0 0 0
          0 0 0 0 0 0 0 0 0 0 0 0
        </DataArray>
        <DataArray type="Float32" Name="relativePerm_n" NumberOfComponents="1" format="ascii">
          0 0 0 0 0 0 0 0 0 0 0 0
          0 0 0 0 0 0 0 0 0 0 0 0
          0 0 0 0 0 0 0 0 0 0 0 0
          0 0 0 0 0 0 0 0 0 0 0 0
          0 0 0 0 0 0 0 0 0 0 0 0
          0 0 0 0 0 0 0 0 0 0 0 0
          0 0 0 0 0 0 0 0 0 0 0 0
          0 0 0 0 0 0 0 0 0 0 0 0
          0 0 0 0 0 0 0 0 0 0 0 0
          0 0 0 0 0 0 0 0 0 0 0 0
          0 0 0 0 0 0 0 0 0 0 0 0
          0 0 0 0 0 0 0 0 0 0 0 0
          0 0 0 0 0 0 0 0 0 0 0 0
          0 0 5.43243e-11 5.01872e-10 5.01792e-10 0 0 0 0 0 0 0
          0 0 0 0 0 0 0 0 0 0 0 0
          0 0 0 0 0 0 0 0 0 0 0 0
          0 0 0 0 0 0 0 0 0 0 0 0
        </DataArray>
        <DataArray type="Float32" Name="relativePerm_g" NumberOfComponents="1" format="ascii">
          0 0 0.026417 0.00141739 0 0.000314929 0 0.000363566 0 0.00035206 0 0.000347221
          0 0.00034188 0 0.00033734 0 0.000333188 0 0.000330071 0 0.000327442 0 0.000325287
          0 0.000323559 0 0.000322191 0 0.00032112 0 0.00032029 0 0.000319653 0 0.000319167
          0 0.0003188 0 0.000318524 0 0.000318319 0 0.000318166 0 0.000318054 0 0.000317971
          0 0.000317911 0 0.000317868 0 0.000317837 0 0.000317816 0 0.000317802 0 0.000317793
          0 0.00031779 0 0.00031779 0 0.000317795 0 0.000317804 0 0.000317818 0 0.000317837
          0 0.000317864 0 0.000317899 0 0.000317945 0 0.000318003 0 0.000318077 0 0.000318169
          0 0.000318282 0 0.00031842 0 0.000318575 0 0.00031884 0 0.000317324 0 0.000315362
          0 0.000289114 0 0.00128995 0 0.0265327 0.907725 0.907714 0.907714 0.907714 0.907714 0.907714
          0.907714 0.907714 0.907714 0.907714 0.907714 0.907714 0.907714 0.907714 0.907714 0.907714 0.907714 0.907714
          0.907714 0.907714 0.907714 0.907714 0.907714 0.907714 0.907714 0.907714 0.907714 0.907714 0.907714 0.907714
          0.907714 0.907714 0.907714 0.907714 0.907714 0.907714 0.907714 0.907714 0.907714 0.907714 0.907714 0.907714
          0.907714 0.907714 0.907714 0.907714 0.907714 0.907714 0.907714 0.907714 0.907715 0.907726 0.907714 0.907714
          0.907714 0.907714 0.90697 0.906212 0.906212 0.907714 0.907714 0.907714 0.907714 0.907714 0.907714 0.907714
          0.907714 0.907714 0.907714 0.907714 0.907714 0.907714 0.907714 0.907714 0.907714 0.907714 0.907714 0.907714
          0.907714 0.907714 0.907714 0.907714 0.907714 0.907714 0.907714 0.907714 0.907714 0.907714 0.907714 0.907714
          0.907714 0.907714 0.907714 0.907714 0.907714 0.907714 0.907714 0.907714 0.907714 0.907714 0.907714 0.907715
        </DataArray>
        <DataArray type="Float32" Name="porosity" NumberOfComponents="1" format="ascii">
          0.4 0.4 0.4 0.4 0.4 0.4 0.4 0.4 0.4 0.4 0.4 0.4
          0.4 0.4 0.4 0.4 0.4 0.4 0.4 0.4 0.4 0.4 0.4 0.4
          0.4 0.4 0.4 0.4 0.4 0.4 0.4 0.4 0.4 0.4 0.4 0.4
          0.4 0.4 0.4 0.4 0.4 0.4 0.4 0.4 0.4 0.4 0.4 0.4
          0.4 0.4 0.4 0.4 0.4 0.4 0.4 0.4 0.4 0.4 0.4 0.4
          0.4 0.4 0.4 0.4 0.4 0.4 0.4 0.4 0.4 0.4 0.4 0.4
          0.4 0.4 0.4 0.4 0.4 0.4 0.4 0.4 0.4 0.4 0.4 0.4
          0.4 0.4 0.4 0.4 0.4 0.4 0.4 0.4 0.4 0.4 0.4 0.4
          0.4 0.4 0.4 0.4 0.4 0.4 0.4 0.4 0.4 0.4 0.4 0.4
          0.4 0.4 0.4 0.4 0.4 0.4 0.4 0.4 0.4 0.4 0.4 0.4
          0.4 0.4 0.4 0.4 0.4 0.4 0.4 0.4 0.4 0.4 0.4 0.4
          0.4 0.4 0.4 0.4 0.4 0.4 0.4 0.4 0.4 0.4 0.4 0.4
          0.4 0.4 0.4 0.4 0.4 0.4 0.4 0.4 0.4 0.4 0.4 0.4
          0.4 0.4 0.4 0.4 0.4 0.4 0.4 0.4 0.4 0.4 0.4 0.4
          0.4 0.4 0.4 0.4 0.4 0.4 0.4 0.4 0.4 0.4 0.4 0.4
          0.4 0.4 0.4 0.4 0.4 0.4 0.4 0.4 0.4 0.4 0.4 0.4
          0.4 0.4 0.4 0.4 0.4 0.4 0.4 0.4 0.4 0.4 0.4 0.4
        </DataArray>
        <DataArray type="Float32" Name="moleFrac_w^H2O" NumberOfComponents="1" format="ascii">
          0.999981 0.999979 0.999984 0.999984 0.999979 0.999984 0.999979 0.999984 0.999979 0.999984 0.999979 0.999984
          0.99998 0.999985 0.99998 0.999985 0.99998 0.999985 0.99998 0.999985 0.99998 0.999985 0.99998 0.999985
          0.99998 0.999985 0.99998 0.999985 0.99998 0.999985 0.99998 0.999985 0.99998 0.999985 0.99998 0.999985
          0.99998 0.999985 0.99998 0.999985 0.99998 0.999985 0.99998 0.999985 0.99998 0.999985 0.99998 0.999985
          0.99998 0.999985 0.99998 0.999985 0.99998 0.999985 0.99998 0.999985 0.99998 0.999985 0.99998 0.999985
          0.99998 0.999985 0.99998 0.999985 0.99998 0.999985 0.99998 0.999985 0.99998 0.999985 0.99998 0.999985
          0.99998 0.999985 0.99998 0.999985 0.99998 0.999985 0.99998 0.999985 0.99998 0.999985 0.99998 0.999985
          0.99998 0.999985 0.99998 0.999985 0.99998 0.999985 0.99998 0.999985 0.99998 0.999985 0.99998 0.999985
          0.99998 0.999985 0.99998 0.999985 0.999983 0.999985 0.999984 0.999984 0.999984 0.999984 0.999984 0.999984
          0.999985 0.999985 0.999985 0.999985 0.999985 0.999985 0.999985 0.999985 0.999985 0.999985 0.999985 0.999985
          0.999985 0.999985 0.999985 0.999985 0.999985 0.999985 0.999985 0.999985 0.999985 0.999985 0.999985 0.999985
          0.999985 0.999985 0.999985 0.999985 0.999985 0.999985 0.999985 0.999985 0.999985 0.999985 0.999985 0.999985
          0.999985 0.999985 0.999985 0.999985 0.999985 0.999985 0.999985 0.999985 0.999985 0.999984 0.999984 0.999984
          0.999984 0.999984 0.999981 0.999981 0.999981 0.999984 0.999985 0.999985 0.999985 0.999985 0.999985 0.999985
          0.999985 0.999985 0.999985 0.999985 0.999985 0.999985 0.999985 0.999985 0.999985 0.999985 0.999985 0.999985
          0.999985 0.999985 0.999985 0.999985 0.999985 0.999985 0.999985 0.999985 0.999985 0.999985 0.999985 0.999985
          0.999985 0.999985 0.999985 0.999985 0.999985 0.999985 0.999985 0.999985 0.999985 0.999985 0.999985 0.999985
        </DataArray>
        <DataArray type="Float32" Name="moleFrac_w^mesitylene" NumberOfComponents="1" format="ascii">
          0 -9.58289e-19 -1.84306e-18 -1.45933e-18 -1.41e-18 1.08337e-18 -2.80057e-18 1.07191e-18 2.77937e-18 2.75298e-16 4.12557e-14 1.09113e-11
          4.94149e-14 1.13701e-11 4.65678e-14 1.02363e-11 7.19641e-17 1.46971e-13 3.60653e-18 4.04953e-15 -2.24669e-18 8.63401e-17 3.58509e-18 1.35481e-18
          4.02454e-18 3.37721e-19 2.67844e-18 -1.01082e-18 8.91612e-19 6.72655e-19 5.78943e-18 6.71702e-19 5.78478e-18 -6.70968e-19 3.11297e-18 -1.00561e-18
          -4.44503e-19 6.69982e-19 8.88697e-19 -6.69662e-19 3.10963e-18 -1.00413e-18 5.77391e-18 -1.33849e-18 1.33225e-18 3.34557e-19 2.66422e-18 -6.69017e-19
          -1.77601e-18 2.00684e-18 1.33193e-18 -1.33779e-18 4.43961e-18 -3.3443e-19 -3.10764e-18 0 3.99547e-18 -1.00323e-18 3.99543e-18 2.34083e-18
          4.88327e-18 6.68803e-19 3.10754e-18 1.33761e-18 -2.66362e-18 6.68809e-19 3.10759e-18 2.34087e-18 5.77135e-18 1.67209e-18 5.32753e-18 -3.34429e-19
          8.87951e-19 1.00333e-18 4.43995e-19 1.33786e-18 1.77608e-18 -1.00347e-18 -1.33216e-18 1.00357e-18 5.32914e-18 6.69132e-19 4.44147e-19 -1.33847e-18
          7.55157e-18 -6.69364e-19 4.44286e-18 -2.34331e-18 4.88814e-18 1.3394e-18 1.33345e-18 6.6991e-19 2.66758e-18 3.35075e-19 -8.89855e-19 -1.67647e-18
          5.78593e-18 1.3449e-18 -1.80039e-18 3.355e-19 1.91156e-18 1.34242e-18 -1.10586e-18 0 -2.165e-18 0 1.58148e-13 8.8778e-09
          9.04129e-09 8.50952e-09 6.13025e-10 2.57041e-11 7.25203e-13 1.48066e-14 2.25171e-16 2.35765e-18 1.00858e-18 1.00715e-18 -6.70701e-19 4.35591e-18
          -2.344e-18 -1.00409e-18 1.00373e-18 -2.00693e-18 -1.67211e-18 6.68749e-19 2.00604e-18 -6.68628e-19 0 1.67142e-18 2.33993e-18 -1.33708e-18
          -2.33987e-18 2.00561e-18 1.67135e-18 1.67138e-18 -1.00285e-18 -1.00289e-18 -1.00293e-18 -6.68661e-19 -3.34357e-19 1.00317e-18 1.0033e-18 1.00345e-18
          -6.69096e-19 1.3385e-18 -2.34301e-18 1.00446e-18 1.00482e-18 1.67534e-18 1.34053e-18 2.34758e-18 -2.34925e-18 -1.10568e-18 3.6452e-19 7.21381e-19
          1.7851e-18 5.70886e-11 3.4029e-06 3.40293e-06 3.40295e-06 2.5729e-07 1.04474e-08 2.85656e-10 5.68268e-12 8.4898e-14 9.6423e-16 7.05726e-18
          1.34233e-18 1.34087e-18 -1.00481e-18 -1.33889e-18 1.00369e-18 -2.00666e-18 3.34355e-18 -6.68578e-19 1.6712e-18 -1.67103e-18 3.3418e-19 6.68324e-19
          1.3366e-18 -1.67071e-18 2.33895e-18 1.0024e-18 0 2.00482e-18 -3.34142e-19 0 -1.00248e-18 -1.00253e-18 2.33938e-18 -1.00267e-18
          -6.68513e-19 1.33719e-18 2.0061e-18 1.00324e-18 -6.68982e-19 -2.34207e-18 -1.00406e-18 1.00442e-18 0 -1.00503e-18 6.70449e-19 3.35551e-19
        </DataArray>
        <DataArray type="Float32" Name="moleFrac_w^Air" NumberOfComponents="1" format="ascii">
          1.85543e-05 2.1425e-05 1.64396e-05 1.62692e-05 2.10125e-05 1.61019e-05 2.08665e-05 1.59296e-05 2.07071e-05 1.5774e-05 2.05644e-05 1.56315e-05
          2.04363e-05 1.55035e-05 2.03242e-05 1.5391e-05 2.0228e-05 1.52943e-05 2.01473e-05 1.5213e-05 2.00807e-05 1.51456e-05 2.00265e-05 1.50906e-05
          1.99829e-05 1.50464e-05 1.99484e-05 1.50112e-05 1.99214e-05 1.49835e-05 1.99004e-05 1.4962e-05 1.98842e-05 1.49455e-05 1.98719e-05 1.49328e-05
          1.98626e-05 1.49232e-05 1.98556e-05 1.4916e-05 1.98504e-05 1.49106e-05 1.98465e-05 1.49066e-05 1.98436e-05 1.49036e-05 1.98415e-05 1.49015e-05
          1.984e-05 1.48999e-05 1.98389e-05 1.48987e-05 1.98381e-05 1.48979e-05 1.98376e-05 1.48974e-05 1.98372e-05 1.4897e-05 1.9837e-05 1.48968e-05
          1.98369e-05 1.48967e-05 1.98369e-05 1.48967e-05 1.9837e-05 1.48968e-05 1.98373e-05 1.4897e-05 1.98376e-05 1.48974e-05 1.98381e-05 1.48979e-05
          1.98388e-05 1.48986e-05 1.98397e-05 1.48995e-05 1.98408e-05 1.49007e-05 1.98423e-05 1.49022e-05 1.98442e-05 1.49041e-05 1.98465e-05 1.49064e-05
          1.98494e-05 1.49093e-05 1.98528e-05 1.49128e-05 1.98569e-05 1.49169e-05 1.98617e-05 1.49216e-05 1.98668e-05 1.4927e-05 1.98817e-05 1.49369e-05
          1.98882e-05 1.49789e-05 2.01149e-05 1.49462e-05 1.70575e-05 1.4951e-05 1.644e-05 1.62619e-05 1.60888e-05 1.59233e-05 1.57677e-05 1.56252e-05
          1.54973e-05 1.53849e-05 1.52882e-05 1.52069e-05 1.51396e-05 1.50846e-05 1.50403e-05 1.50051e-05 1.49775e-05 1.4956e-05 1.49394e-05 1.49268e-05
          1.49172e-05 1.491e-05 1.49046e-05 1.49006e-05 1.48976e-05 1.48954e-05 1.48938e-05 1.48927e-05 1.48919e-05 1.48913e-05 1.48909e-05 1.48907e-05
          1.48906e-05 1.48906e-05 1.48908e-05 1.4891e-05 1.48913e-05 1.48919e-05 1.48925e-05 1.48935e-05 1.48946e-05 1.48961e-05 1.4898e-05 1.49004e-05
          1.49033e-05 1.49067e-05 1.49108e-05 1.49156e-05 1.4921e-05 1.49267e-05 1.49297e-05 1.49402e-05 1.4951e-05 1.64373e-05 1.62551e-05 1.60824e-05
          1.59169e-05 1.57614e-05 1.5602e-05 1.5474e-05 1.53617e-05 1.52807e-05 1.52008e-05 1.51335e-05 1.50785e-05 1.50343e-05 1.49991e-05 1.49714e-05
          1.495e-05 1.49334e-05 1.49207e-05 1.49112e-05 1.49039e-05 1.48985e-05 1.48945e-05 1.48916e-05 1.48894e-05 1.48878e-05 1.48867e-05 1.48859e-05
          1.48853e-05 1.48849e-05 1.48847e-05 1.48846e-05 1.48846e-05 1.48847e-05 1.48849e-05 1.48853e-05 1.48858e-05 1.48865e-05 1.48874e-05 1.48886e-05
          1.48901e-05 1.4892e-05 1.48943e-05 1.48972e-05 1.49007e-05 1.49048e-05 1.49095e-05 1.4915e-05 1.49204e-05 1.49242e-05 1.49338e-05 1.49485e-05
        </DataArray>
        <DataArray type="Float32" Name="moleFrac_n^H2O" NumberOfComponents="1" format="ascii">
          1.09016e-05 1.09016e-05 1.09016e-05 1.09016e-05 1.09016e-05 1.09016e-05 1.09016e-05 1.09016e-05 1.09016e-05 1.09017e-05 1.09016e-05 1.09017e-05
          1.09016e-05 1.09017e-05 1.09016e-05 1.09017e-05 1.09016e-05 1.09017e-05 1.09016e-05 1.09017e-05 1.09016e-05 1.09017e-05 1.09016e-05 1.09017e-05
          1.09016e-05 1.09017e-05 1.09016e-05 1.09017e-05 1.09016e-05 1.09017e-05 1.09016e-05 1.09017e-05 1.09016e-05 1.09017e-05 1.09016e-05 1.09017e-05
          1.09016e-05 1.09017e-05 1.09016e-05 1.09017e-05 1.09016e-05 1.09017e-05 1.09016e-05 1.09017e-05 1.09016e-05 1.09017e-05 1.09016e-05 1.09017e-05
          1.09016e-05 1.09017e-05 1.09016e-05 1.09017e-05 1.09016e-05 1.09017e-05 1.09016e-05 1.09017e-05 1.09016e-05 1.09017e-05 1.09016e-05 1.09017e-05
          1.09016e-05 1.09017e-05 1.09016e-05 1.09017e-05 1.09016e-05 1.09017e-05 1.09016e-05 1.09017e-05 1.09016e-05 1.09017e-05 1.09016e-05 1.09017e-05
          1.09016e-05 1.09017e-05 1.09016e-05 1.09017e-05 1.09016e-05 1.09017e-05 1.09016e-05 1.09017e-05 1.09016e-05 1.09017e-05 1.09016e-05 1.09017e-05
          1.09016e-05 1.09017e-05 1.09016e-05 1.09017e-05 1.09016e-05 1.09017e-05 1.09016e-05 1.09017e-05 1.09016e-05 1.09017e-05 1.09016e-05 1.09017e-05
          1.09016e-05 1.09017e-05 1.09016e-05 1.09017e-05 1.09016e-05 1.09017e-05 1.09016e-05 1.09016e-05 1.09016e-05 1.09016e-05 1.09017e-05 1.09017e-05