<?xml version="1.0"?>
<VTKFile type="UnstructuredGrid" version="0.1" byte_order="LittleEndian">
  <UnstructuredGrid>
    <Piece NumberOfCells="150" NumberOfPoints="204">
      <PointData Scalars="pressure_w">
        <DataArray type="Float32" Name="pressure_w" NumberOfComponents="1" format="ascii">
          87256.2 87973.5 87234.1 87931.9 88633.7 88593 89255.6 89214.5 89827.3 89785.9 90342.1 90300.6
          90796.2 90754.5 91189.1 91147.3 91523.1 91481.1 91803.5 91761.4 92035.9 91993.7 92226.2 92183.9
          92380.2 92337.9 92503.7 92461.3 92601.8 92559.4 92679.1 92636.6 92739.5 92697 92786.2 92743.7
          92822.2 92779.7 92849.6 92807 92870.2 92827.6 92885.4 92842.8 92896.2 92853.7 92903.6 92861
          92907.9 92865.4 92909.6 92867 92908.7 92866.1 92905.2 92862.6 92898.9 92856.3 92889.2 92846.6
          92875.4 92832.9 92856.7 92814.1 92831.6 92789.1 92798.6 92756.1 92755.6 92713.1 92699.9 92657.5
          92628.6 92586.2 92537.9 92495.4 92423.4 92381 92280.2 92237.9 92102.9 92060.6 91885.6 91843.5
          91622.6 91580.5 91308.1 91266.2 90937.4 90895.7 90507.4 90465.8 90017.1 89975.7 89468.3 89427.1
          88866.4 88825.8 88223.7 88180.2 87491 87488.8 87216.5 87891.1 88552.1 89173.4 89744.5 90259.1
          90712.9 91105.6 91439.2 91719.3 91951.5 92141.6 92295.6 92419 92517 92594.2 92654.5 92701.2
          92737.2 92764.5 92785.1 92800.3 92811.1 92818.5 92822.8 92824.5 92823.6 92820.1 92813.8 92804.1
          92790.3 92771.6 92746.6 92713.6 92670.6 92615 92543.7 92453 92338.6 92195.6 92018.4 91801.4
          91538.5 91224.2 90853.9 90424.3 89934.3 89386 88784.6 88140.3 87480.7 87194 87849.6 88511.4
          89132.3 89703 90217.7 90442.5 90835.3 91397.1 91677.2 91909.3 92099.4 92253.2 92376.6 92474.6
          92551.7 92612 92658.8 92694.7 92722 92742.6 92757.8 92768.6 92775.9 92780.3 92781.9 92781.1
          92777.6 92771.2 92761.5 92747.8 92729.1 92704.1 92671.1 92628.1 92572.6 92501.3 92410.7 92296.3
          92153.3 91976.2 91759.2 91496.5 91182.4 90812.2 90382.7 89892.9 89344.8 88744 88096.9 87478.1
        </DataArray>
        <DataArray type="Float32" Name="pressure_n" NumberOfComponents="1" format="ascii">
          87256.2 87973.5 87234.1 87931.9 88633.7 88593 89255.6 89214.5 89827.3 89785.9 90342.1 90300.6
          90796.2 90754.5 91189.1 91147.3 91523.1 91481.1 91803.5 91761.4 92035.9 91993.7 92226.2 92183.9
          92380.2 92337.9 92503.7 92461.3 92601.8 92559.4 92679.1 92636.6 92739.5 92697 92786.2 92743.7
          92822.2 92779.7 92849.6 92807 92870.2 92827.6 92885.4 92842.8 92896.2 92853.7 92903.6 92861
          92907.9 92865.4 92909.6 92867 92908.7 92866.1 92905.2 92862.6 92898.9 92856.3 92889.2 92846.6
          92875.4 92832.9 92856.7 92814.1 92831.6 92789.1 92798.6 92756.1 92755.6 92713.1 92699.9 92657.5
          92628.6 92586.2 92537.9 92495.4 92423.4 92381 92280.2 92237.9 92102.9 92060.6 91885.6 91843.5
          91622.6 91580.5 91308.1 91266.2 90937.4 90895.7 90507.4 90465.8 90017.1 89975.7 89468.3 89427.1
          88866.4 88825.8 88223.7 88180.2 87491 87488.8 87216.5 87891.1 88552.1 89173.4 89744.5 90259.1
          90712.9 91105.6 91439.2 91719.3 91951.5 92141.6 92295.6 92419 92517 92594.2 92654.5 92701.2
          92737.2 92764.5 92785.1 92800.3 92811.1 92818.5 92822.8 92824.5 92823.6 92820.1 92813.8 92804.1
          92790.3 92771.6 92746.6 92713.6 92670.6 92615 92543.7 92453 92338.6 92195.6 92018.4 91801.4
          91538.5 91224.2 90853.9 90424.3 89934.3 89386 88784.6 88140.3 87480.7 87194 87849.6 88511.4
          89132.3 89703 90217.7 90671.4 91064.2 91397.1 91677.2 91909.3 92099.4 92253.2 92376.6 92474.6
          92551.7 92612 92658.8 92694.7 92722 92742.6 92757.8 92768.6 92775.9 92780.3 92781.9 92781.1
          92777.6 92771.2 92761.5 92747.8 92729.1 92704.1 92671.1 92628.1 92572.6 92501.3 92410.7 92296.3
          92153.3 91976.2 91759.2 91496.5 91182.4 90812.2 90382.7 89892.9 89344.8 88744 88096.9 87478.1
        </DataArray>
        <DataArray type="Float32" Name="pressure_g" NumberOfComponents="1" format="ascii">
          100181 100898 100159 100856 101558 101517 102180 102139 102752 102710 103267 103225
          103721 103679 104114 104072 104448 104406 104728 104686 104960 104918 105151 105108
          105305 105262 105428 105386 105526 105484 105604 105561 105664 105621 105711 105668
          105747 105704 105774 105732 105795 105752 105810 105767 105821 105778 105828 105786
          105832 105790 105834 105792 105833 105791 105830 105787 105823 105781 105814 105771
          105800 105757 105781 105739 105756 105714 105723 105681 105680 105638 105624 105582
          105553 105511 105462 105420 105348 105306 105205 105162 105027 104985 104810 104768
          104547 104505 104233 104191 103862 103820 103432 103390 102942 102900 102393 102352
          101791 101750 101148 101105 100415 100413 100141 100816 101477 102098 102669 103184
          103637 104030 104364 104644 104876 105066 105220 105343 105442 105519 105579 105626
          105662 105689 105710 105725 105736 105743 105747 105749 105748 105745 105738 105729
          105715 105696 105671 105638 105595 105540 105468 105378 105263 105120 104943 104726
          104463 104149 103778 103349 102859 102310 101709 101065 100405 100118 100774 101436
          102057 102627 103142 103596 103989 104322 104602 104834 105024 105178 105301 105399
          105476 105537 105583 105619 105647 105667 105682 105693 105700 105705 105706 105706
          105702 105696 105686 105672 105654 105629 105596 105553 105497 105426 105335 105221
          105078 104901 104684 104421 104107 103737 103307 102817 102269 101669 101021 100403
        </DataArray>
        <DataArray type="Float32" Name="density_w" NumberOfComponents="1" format="ascii">
          662.734 0.106676 643.861 0.106632 0.107374 0.107331 0.108032 0.107988 0.108636 0.108592 0.10918 0.109137
          0.109661 0.109616 0.110076 0.110032 0.110429 0.110385 0.110726 0.110681 0.110971 0.110927 0.111172 0.111128
          0.111335 0.111291 0.111466 0.111421 0.11157 0.111525 0.111651 0.111606 0.111715 0.11167 0.111765 0.11172
          0.111803 0.111758 0.111832 0.111787 0.111853 0.111808 0.111869 0.111824 0.111881 0.111836 0.111889 0.111844
          0.111893 0.111848 0.111895 0.11185 0.111894 0.111849 0.11189 0.111845 0.111884 0.111839 0.111873 0.111828
          0.111859 0.111814 0.111839 0.111794 0.111813 0.111768 0.111778 0.111733 0.111732 0.111687 0.111673 0.111628
          0.111598 0.111553 0.111502 0.111457 0.111381 0.111336 0.11123 0.111185 0.111042 0.110997 0.110812 0.110768
          0.110534 0.11049 0.110202 0.110157 0.10981 0.109766 0.109355 0.109311 0.108837 0.108793 0.108257 0.108213
          0.10762 0.107577 0.106941 0.106895 314.932 221.039 0.324156 0.106589 0.107288 0.107945 0.108549 0.109099
          0.109583 0.110002 0.11034 0.110637 0.110882 0.111083 0.111246 0.111376 0.11148 0.111562 0.111625 0.111675
          0.111713 0.111742 0.111763 0.111779 0.111791 0.111799 0.111803 0.111805 0.111804 0.1118 0.111794 0.111783
          0.111769 0.111749 0.111723 0.111688 0.111642 0.111584 0.111508 0.111412 0.111291 0.11114 0.110953 0.110723
          0.110445 0.110113 0.109722 0.109267 0.108749 0.108169 0.107534 0.106852 0.177627 0.109922 0.106546 0.107262
          0.108124 0.111098 0.131611 0.13209 0.132506 0.110299 0.110592 0.110837 0.111038 0.111201 0.111332 0.111435
          0.111517 0.11158 0.11163 0.111668 0.111697 0.111718 0.111735 0.111746 0.111754 0.111758 0.11176 0.111759
          0.111755 0.111749 0.111739 0.111724 0.111704 0.111678 0.111643 0.111597 0.111539 0.111463 0.111368 0.111247
          0.111095 0.110908 0.110679 0.110401 0.110069 0.109677 0.109223 0.108705 0.108126 0.107491 0.106806 0.107498
        </DataArray>
        <DataArray type="Float32" Name="density_n" NumberOfComponents="1" format="ascii">
          878.771 878.771 878.771 878.771 878.771 878.771 878.771 878.771 878.771 878.771 878.771 878.771
          878.771 878.771 878.771 878.771 878.771 878.771 878.771 878.771 878.771 878.771 878.771 878.771
          878.771 878.771 878.771 878.771 878.771 878.771 878.771 878.771 878.771 878.771 878.771 878.771
          878.771 878.771 878.771 878.771 878.771 878.771 878.771 878.771 878.771 878.771 878.771 878.771
          878.771 878.771 878.771 878.771 878.771 878.771 878.771 878.771 878.771 878.771 878.771 878.771
          878.771 878.771 878.771 878.771 878.771 878.771 878.771 878.771 878.771 878.771 878.771 878.771
          878.771 878.771 878.771 878.771 878.771 878.771 878.771 878.771 878.771 878.771 878.771 878.771
          878.771 878.771 878.771 878.771 878.771 878.771 878.771 878.771 878.771 878.771 878.771 878.771
          878.771 878.771 878.771 878.771 878.771 878.771 878.771 878.771 878.771 878.771 878.771 878.771
          878.771 878.771 878.771 878.771 878.771 878.771 878.771 878.771 878.771 878.771 878.771 878.771
          878.771 878.771 878.771 878.771 878.771 878.771 878.771 878.771 878.771 878.771 878.771 878.771
          878.771 878.771 878.771 878.771 878.771 878.771 878.771 878.771 878.771 878.771 878.771 878.771
          878.771 878.771 878.771 878.771 878.771 878.771 878.771 878.771 878.771 878.771 878.771 878.771
          878.771 878.771 878.771 878.771 878.771 878.771 878.771 878.771 878.771 878.771 878.771 878.771
          878.771 878.771 878.771 878.771 878.771 878.771 878.771 878.771 878.771 878.771 878.771 878.771
          878.771 878.771 878.771 878.771 878.771 878.771 878.771 878.771 878.771 878.771 878.771 878.771
          878.771 878.771 878.771 878.771 878.771 878.771 878.771 878.771 878.771 878.771 878.771 878.771
        </DataArray>
        <DataArray type="Float32" Name="density_g" NumberOfComponents="1" format="ascii">
          1.22856 1.24116 1.2284 1.24064 1.24928 1.24878 1.25693 1.25642 1.26396 1.26345 1.27029 1.26978
          1.27588 1.27537 1.28071 1.2802 1.28482 1.2843 1.28827 1.28775 1.29113 1.29061 1.29347 1.29295
          1.29536 1.29484 1.29688 1.29636 1.29809 1.29757 1.29904 1.29852 1.29978 1.29926 1.30036 1.29984
          1.3008 1.30028 1.30114 1.30062 1.30139 1.30087 1.30158 1.30106 1.30171 1.30119 1.3018 1.30128
          1.30186 1.30133 1.30188 1.30135 1.30187 1.30134 1.30182 1.3013 1.30174 1.30122 1.30163 1.3011
          1.30146 1.30093 1.30123 1.3007 1.30092 1.30039 1.30051 1.29999 1.29998 1.29946 1.2993 1.29878
          1.29842 1.2979 1.2973 1.29678 1.2959 1.29537 1.29413 1.29361 1.29195 1.29143 1.28928 1.28876
          1.28604 1.28553 1.28218 1.28166 1.27762 1.2771 1.27233 1.27182 1.2663 1.26579 1.25954 1.25904
          1.25214 1.25164 1.24423 1.2437 1.23343 1.23394 1.23184 1.24014 1.24827 1.25592 1.26294 1.26927
          1.27486 1.27969 1.28379 1.28723 1.29009 1.29243 1.29432 1.29584 1.29705 1.298 1.29874 1.29931
          1.29976 1.30009 1.30035 1.30053 1.30067 1.30076 1.30081 1.30083 1.30082 1.30078 1.3007 1.30058
          1.30041 1.30018 1.29987 1.29947 1.29894 1.29825 1.29738 1.29626 1.29485 1.29309 1.29091 1.28824
          1.28501 1.28114 1.27659 1.2713 1.26528 1.25853 1.25113 1.24321 1.23509 1.23157 1.23963 1.24778
          1.25545 1.26293 1.27312 1.2787 1.28353 1.28327 1.28672 1.28957 1.29191 1.2938 1.29532 1.29653
          1.29747 1.29822 1.29879 1.29923 1.29957 1.29982 1.30001 1.30014 1.30023 1.30029 1.30031 1.3003
          1.30025 1.30017 1.30006 1.29989 1.29966 1.29935 1.29894 1.29841 1.29773 1.29685 1.29574 1.29433
          1.29257 1.2904 1.28773 1.28449 1.28063 1.27608 1.27079 1.26477 1.25803 1.25064 1.24267 1.23506
        </DataArray>
        <DataArray type="Float32" Name="saturation_w" NumberOfComponents="1" format="ascii">
          0 0 0 0 0 0 0 0 0 0 0 0
          0 0 0 0 0 0 0 0 0 0 0 0
          0 0 0 0 0 0 0 0 0 0 0 0
          0 0 0 0 0 0 0 0 0 0 0 0
          0 0 0 0 0 0 0 0 0 0 0 0
          0 0 0 0 0 0 0 0 0 0 0 0
          0 0 0 0 0 0 0 0 0 0 0 0
          0 0 0 0 0 0 0 0 0 0 0 0
          0 0 0 0 0 0 0 0 0 0 0 0
          0 0 0 0 0 0 0 0 0 0 0 0
          0 0 0 0 0 0 0 0 0 0 0 0
          0 0 0 0 0 0 0 0 0 0 0 0
          0 0 0 0 0 0 0 0 0 0 0 0
          0 0 0 0 0 0 0 0 0 0 0 0
          0 0 0 0 0 0 0 0 0 0 0 0
          0 0 0 0 0 0 0 0 0 0 0 0
          0 0 0 0 0 0 0 0 0 0 0 0
        </DataArray>
        <DataArray type="Float32" Name="saturation_n" NumberOfComponents="1" format="ascii">
          0 0 0 0 0 0 0 0 0 0 0 0
          0 0 0 0 0 0 0 0 0 0 0 0
          0 0 0 0 0 0 0 0 0 0 0 0
          0 0 0 0 0 0 0 0 0 0 0 0
          0 0 0 0 0 0 0 0 0 0 0 0
          0 0 0 0 0 0 0 0 0 0 0 0
          0 0 0 0 0 0 0 0 0 0 0 0
          0 0 0 0 0 0 0 0 0 0 0 0
          0 0 0 0 0 0 0 0 0 0 0 0
          0 0 0 0 0 0 0 0 0 0 0 0
          0 0 0 0 0 0 0 0 0 0 0 0
          0 0 0 0 0 0 0 0 0 0 0 0
          0 0 0 0 0 0 0 0 0 0 0 0
          0 0 0.000607929 0.00122259 0.00122221 0 0 0 0 0 0 0
          0 0 0 0 0 0 0 0 0 0 0 0
          0 0 0 0 0 0 0 0 0 0 0 0
          0 0 0 0 0 0 0 0 0 0 0 0
        </DataArray>
        <DataArray type="Float32" Name="saturation_g" NumberOfComponents="1" format="ascii">
          1 1 1 1 1 1 1 1 1 1 1 1
          1 1 1 1 1 1 1 1 1 1 1 1
          1 1 1 1 1 1 1 1 1 1 1 1
          1 1 1 1 1 1 1 1 1 1 1 1
          1 1 1 1 1 1 1 1 1 1 1 1
          1 1 1 1 1 1 1 1 1 1 1 1
          1 1 1 1 1 1 1 1 1 1 1 1
          1 1 1 1 1 1 1 1 1 1 1 1
          1 1 1 1 1 1 1 1 1 1 1 1
          1 1 1 1 1 1 1 1 1 1 1 1
          1 1 1 1 1 1 1 1 1 1 1 1
          1 1 1 1 1 1 1 1 1 1 1 1
          1 1 1 1 1 1 1 1 1 1 1 1
          1 1 0.999392 0.998777 0.998778 1 1 1 1 1 1 1
          1 1 1 1 1 1 1 1 1 1 1 1
          1 1 1 1 1 1 1 1 1 1 1 1
          1 1 1 1 1 1 1 1 1 1 1 1
        </DataArray>
        <DataArray type="Float32" Name="relativePerm_w" NumberOfComponents="1" format="ascii">
          0 0 0 0 0 0 0 0 0 0 0 0
          0 0 0 0 0 0 0 0 0 0 0 0
          0 0 0 0 0 0 0 0 0 0 0 0
          0 0 0 0 0 0 0 0 0 0 0 0
          0 0 0 0 0 0 0 0 0 0 0 0
          0 0 0 0 0 0 0 0 0 0 0 0
          0 0 0 0 0 0 0 0 0 0 0 0
          0 0 0 0 0 0 0 0 0 0 0 0
          0 0 0 0 0 0 0 0 0 0 0 0
          0 0 0 0 0 0 0 0 0 0 0 0
          0 0 0 0 0 0 0 0 0 0 0 0
          0 0 0 0 0 0 0 0 0 0 0 0
          0 0 0 0 0 0 0 0 0 0 0 0
          0 0 0 0 0 0 0 0 0 0 0 0
          0 0 0 0 0 0 0 0 0 0 0 0
          0 0 0 0 0 0 0 0 0 0 0 0
          0 0 0 0 0 0 0 0 0 0 0 0
        </DataArray>
        <DataArray type="Float32" Name="relativePerm_n" NumberOfComponents="1" format="ascii">
          0 0 0 0 0 0 0 0 0 0 0 0
          0 0 0 0 0 0 0 0 0 0 0 0
          0 0 0 0 0 0 0 0 0 0 0 0
          0 0 0 0 0 0 0 0 0 0 0 0
          0 0 0 0 0 0 0 0 0 0 0 0
          0 0 0 0 0 0 0 0 0 0 0 0
          0 0 0 0 0 0 0 0 0 0 0 0
          0 0 0 0 0 0 0 0 0 0 0 0
          0 0 0 0 0 0 0 0 0 0 0 0
          0 0 0 0 0 0 0 0 0 0 0 0
          0 0 0 0 0 0 0 0 0 0 0 0
          0 0 0 0 0 0 0 0 0 0 0 0
          0 0 0 0 0 0 0 0 0 0 0 0
          0 0 0 0 0 0 0 0 0 0 0 0
          0 0 0 0 0 0 0 0 0 0 0 0
          0 0 0 0 0 0 0 0 0 0 0 0
          0 0 0 0 0 0 0 0 0 0 0 0
        </DataArray>
        <DataArray type="Float32" Name="relativePerm_g" NumberOfComponents="1" format="ascii">
          1 1 1 1 1 1 1 1 1 1 1 1
          1 1 1 1 1 1 1 1 1 1 1 1
          1 1 1 1 1 1 1 1 1 1 1 1
          1 1 1 1 1 1 1 1 1 1 1 1
          1 1 1 1 1 1 1 1 1 1 1 1
          1 1 1 1 1 1 1 1 1 1 1 1
          1 1 1 1 1 1 1 1 1 1 1 1
          1 1 1 1 1 1 1 1 1 1 1 1
          1 1 1 1 1 1 1 1 1 1 1 1
          1 1 1 1 1 1 1 1 1 1 1 1
          1 1 1 1 1 1 1 1 1 1 1 1
          1 1 1 1 1 1 1 1 1 1 1 1
          1 1 1 1 1 1 1 1 1 1 1 1
          1 1 1 1 1 1 1 1 1 1 1 1
          1 1 1 1 1 1 1 1 1 1 1 1
          1 1 1 1 1 1 1 1 1 1 1 1
          1 1 1 1 1 1 1 1 1 1 1 1
        </DataArray>
        <DataArray type="Float32" Name="porosity" NumberOfComponents="1" format="ascii">
          0.4 0.4 0.4 0.4 0.4 0.4 0.4 0.4 0.4 0.4 0.4 0.4
          0.4 0.4 0.4 0.4 0.4 0.4 0.4 0.4 0.4 0.4 0.4 0.4
          0.4 0.4 0.4 0.4 0.4 0.4 0.4 0.4 0.4 0.4 0.4 0.4
          0.4 0.4 0.4 0.4 0.4 0.4 0.4 0.4 0.4 0.4 0.4 0.4
          0.4 0.4 0.4 0.4 0.4 0.4 0.4 0.4 0.4 0.4 0.4 0.4
          0.4 0.4 0.4 0.4 0.4 0.4 0.4 0.4 0.4 0.4 0.4 0.4
          0.4 0.4 0.4 0.4 0.4 0.4 0.4 0.4 0.4 0.4 0.4 0.4
          0.4 0.4 0.4 0.4 0.4 0.4 0.4 0.4 0.4 0.4 0.4 0.4
          0.4 0.4 0.4 0.4 0.4 0.4 0.4 0.4 0.4 0.4 0.4 0.4
          0.4 0.4 0.4 0.4 0.4 0.4 0.4 0.4 0.4 0.4 0.4 0.4
          0.4 0.4 0.4 0.4 0.4 0.4 0.4 0.4 0.4 0.4 0.4 0.4
          0.4 0.4 0.4 0.4 0.4 0.4 0.4 0.4 0.4 0.4 0.4 0.4
          0.4 0.4 0.4 0.4 0.4 0.4 0.4 0.4 0.4 0.4 0.4 0.4
          0.4 0.4 0.4 0.4 0.4 0.4 0.4 0.4 0.4 0.4 0.4 0.4
          0.4 0.4 0.4 0.4 0.4 0.4 0.4 0.4 0.4 0.4 0.4 0.4
          0.4 0.4 0.4 0.4 0.4 0.4 0.4 0.4 0.4 0.4 0.4 0.4
          0.4 0.4 0.4 0.4 0.4 0.4 0.4 0.4 0.4 0.4 0.4 0.4
        </DataArray>
        <DataArray type="Float32" Name="moleFrac_w^H2O" NumberOfComponents="1" format="ascii">
          0.662912 8.21522e-05 0.644033 8.21183e-05 8.26898e-05 8.26566e-05 8.31961e-05 8.31627e-05 8.36616e-05 8.36279e-05 8.40808e-05 8.4047e-05
          8.44505e-05 8.44165e-05 8.47704e-05 8.47363e-05 8.50424e-05 8.50082e-05 8.52707e-05 8.52364e-05 8.54599e-05 8.54255e-05 8.56148e-05 8.55804e-05
          8.57402e-05 8.57057e-05 8.58408e-05 8.58063e-05 8.59207e-05 8.58861e-05 8.59836e-05 8.5949e-05 8.60327e-05 8.59981e-05 8.60708e-05 8.60362e-05
          8.61001e-05 8.60655e-05 8.61224e-05 8.60877e-05 8.61391e-05 8.61045e-05 8.61515e-05 8.61169e-05 8.61604e-05 8.61257e-05 8.61663e-05 8.61317e-05
          8.61699e-05 8.61352e-05 8.61712e-05 8.61366e-05 8.61705e-05 8.61359e-05 8.61677e-05 8.6133e-05 8.61625e-05 8.61278e-05 8.61546e-05 8.61199e-05
          8.61434e-05 8.61088e-05 8.61281e-05 8.60935e-05 8.61077e-05 8.60731e-05 8.60809e-05 8.60462e-05 8.60458e-05 8.60112e-05 8.60005e-05 8.59659e-05
          8.59425e-05 8.59079e-05 8.58686e-05 8.5834e-05 8.57753e-05 8.57408e-05 8.56588e-05 8.56243e-05 8.55144e-05 8.548e-05 8.53375e-05 8.53032e-05
          8.51233e-05 8.50891e-05 8.48673e-05 8.48331e-05 8.45655e-05 8.45315e-05 8.42154e-05 8.41815e-05 8.38161e-05 8.37824e-05 8.33693e-05 8.33357e-05
          8.28792e-05 8.28462e-05 8.2356e-05 8.23205e-05 0.315004 0.221082 0.000299883 8.20852e-05 8.26233e-05 8.31292e-05 8.35942e-05 8.40132e-05
          8.43827e-05 8.47024e-05 8.4974e-05 8.52021e-05 8.53912e-05 8.5546e-05 8.56713e-05 8.57718e-05 8.58516e-05 8.59144e-05 8.59635e-05 8.60016e-05
          8.60308e-05 8.60531e-05 8.60699e-05 8.60822e-05 8.60911e-05 8.6097e-05 8.61006e-05 8.61019e-05 8.61012e-05 8.60984e-05 8.60932e-05 8.60853e-05
          8.60741e-05 8.60589e-05 8.60385e-05 8.60116e-05 8.59766e-05 8.59314e-05 8.58733e-05 8.57995e-05 8.57064e-05 8.55899e-05 8.54456e-05 8.52689e-05
          8.50549e-05 8.4799e-05 8.44975e-05 8.41477e-05 8.37487e-05 8.33023e-05 8.28126e-05 8.2288e-05 0.000153244 8.55888e-05 8.20513e-05 8.25901e-05
          8.30949e-05 8.35498e-05 8.38878e-05 8.42571e-05 8.45769e-05 8.49398e-05 8.51678e-05 8.53568e-05 8.55115e-05 8.56368e-05 8.57373e-05 8.5817e-05
          8.58799e-05 8.5929e-05 8.5967e-05 8.59962e-05 8.60185e-05 8.60353e-05 8.60476e-05 8.60565e-05 8.60624e-05 8.60659e-05 8.60673e-05 8.60666e-05
          8.60638e-05 8.60586e-05 8.60507e-05 8.60395e-05 8.60243e-05 8.60039e-05 8.5977e-05 8.5942e-05 8.58968e-05 8.58388e-05 8.5765e-05 8.56719e-05
          8.55555e-05 8.54113e-05 8.52346e-05 8.50207e-05 8.47649e-05 8.44635e-05 8.41138e-05 8.3715e-05 8.32687e-05 8.27796e-05 8.22527e-05 8.30948e-05
        </DataArray>
        <DataArray type="Float32" Name="moleFrac_w^mesitylene" NumberOfComponents="1" format="ascii">
          8.98273e-17 2.87892e-18 4.51357e-15 9.04318e-16 3.8158e-21 2.85608e-17 5.81497e-20 4.45986e-16 5.01078e-19 5.28957e-15 6.88103e-18 8.74843e-14
          3.21713e-17 3.03788e-13 5.91082e-17 4.90722e-13 9.46977e-23 1.85583e-18 6.28572e-29 2.57547e-24 4.41131e-34 2.28409e-29 0 5.27621e-35
          0 0 0 0 0 0 0 0 0 0 0 0
          0 0 0 0 0 0 0 0 0 0 0 0
          0 0 0 0 0 0 0 0 0 0 0 0
          0 0 0 0 0 0 0 0 0 0 0 0
          0 0 0 0 0 0 0 0 0 0 0 0
          0 0 0 0 0 0 0 0 0 0 0 0
          0 0 0 0 0 0 3.34998e-13 3.71762e-13 4.12537e-13 5.93248e-12 6.66792e-11 9.08649e-10
          1.60902e-09 2.17008e-09 3.56838e-14 1.85661e-19 1.99666e-24 5.78102e-30 1.00813e-35 0 0 0 0 0
          0 0 0 0 0 0 0 0 0 0 0 0
          0 0 0 0 0 0 0 0 0 0 0 0
          0 0 0 0 0 0 0 0 0 2.6781e-11 1.99345e-10 2.62952e-09
          3.35832e-08 3.91493e-07 3.40605e-06 3.40605e-06 3.40605e-06 4.22677e-10 1.2032e-14 1.23602e-19 4.75717e-25 1.06376e-30 1.013e-36 0
          0 0 0 0 0 0 0 0 0 0 0 0
          0 0 0 0 0 0 0 0 0 0 0 0
          0 0 0 0 0 0 0 0 0 0 0 0
        </DataArray>
        <DataArray type="Float32" Name="moleFrac_w^Air" NumberOfComponents="1" format="ascii">
          1.50439e-05 1.52758e-05 1.50441e-05 1.52695e-05 1.53757e-05 1.53696e-05 1.54699e-05 1.54637e-05 1.55564e-05 1.55502e-05 1.56344e-05 1.56281e-05
          1.57031e-05 1.56968e-05 1.57626e-05 1.57563e-05 1.58132e-05 1.58068e-05 1.58556e-05 1.58493e-05 1.58908e-05 1.58844e-05 1.59196e-05 1.59132e-05
          1.5943e-05 1.59365e-05 1.59617e-05 1.59552e-05 1.59765e-05 1.59701e-05 1.59882e-05 1.59818e-05 1.59973e-05 1.59909e-05 1.60044e-05 1.5998e-05
          1.60099e-05 1.60034e-05 1.6014e-05 1.60076e-05 1.60171e-05 1.60107e-05 1.60194e-05 1.6013e-05 1.60211e-05 1.60146e-05 1.60222e-05 1.60157e-05
          1.60228e-05 1.60164e-05 1.60231e-05 1.60167e-05 1.6023e-05 1.60165e-05 1.60224e-05 1.6016e-05 1.60215e-05 1.6015e-05 1.602e-05 1.60136e-05
          1.60179e-05 1.60115e-05 1.60151e-05 1.60086e-05 1.60113e-05 1.60048e-05 1.60063e-05 1.59999e-05 1.59998e-05 1.59933e-05 1.59914e-05 1.59849e-05
          1.59806e-05 1.59741e-05 1.59668e-05 1.59604e-05 1.59495e-05 1.59431e-05 1.59278e-05 1.59214e-05 1.5901e-05 1.58946e-05 1.58681e-05 1.58617e-05
          1.58282e-05 1.58219e-05 1.57806e-05 1.57743e-05 1.57245e-05 1.57182e-05 1.56594e-05 1.56531e-05 1.55852e-05 1.55789e-05 1.55021e-05 1.54959e-05
          1.5411e-05 1.54048e-05 1.53137e-05 1.53071e-05 1.51442e-05 1.51613e-05 1.51611e-05 1.52633e-05 1.53634e-05 1.54574e-05 1.55439e-05 1.56218e-05
          1.56905e-05 1.575e-05 1.58005e-05 1.58429e-05 1.5878e-05 1.59068e-05 1.59301e-05 1.59488e-05 1.59637e-05 1.59753e-05 1.59845e-05 1.59916e-05
          1.5997e-05 1.60011e-05 1.60042e-05 1.60065e-05 1.60082e-05 1.60093e-05 1.601e-05 1.60102e-05 1.60101e-05 1.60095e-05 1.60086e-05 1.60071e-05
          1.6005e-05 1.60022e-05 1.59984e-05 1.59934e-05 1.59869e-05 1.59785e-05 1.59677e-05 1.5954e-05 1.59367e-05 1.5915e-05 1.58882e-05 1.58553e-05
          1.58155e-05 1.57679e-05 1.57119e-05 1.56468e-05 1.55726e-05 1.54896e-05 1.53986e-05 1.5301e-05 1.52012e-05 1.51578e-05 1.5257e-05 1.53572e-05
          1.54511e-05 1.55357e-05 1.55985e-05 1.56672e-05 1.57266e-05 1.57941e-05 1.58365e-05 1.58717e-05 1.59004e-05 1.59237e-05 1.59424e-05 1.59572e-05
          1.59689e-05 1.5978e-05 1.59851e-05 1.59906e-05 1.59947e-05 1.59978e-05 1.60001e-05 1.60018e-05 1.60029e-05 1.60035e-05 1.60038e-05 1.60036e-05
          1.60031e-05 1.60021e-05 1.60007e-05 1.59986e-05 1.59958e-05 1.5992e-05 1.5987e-05 1.59805e-05 1.59721e-05 1.59613e-05 1.59476e-05 1.59302e-05
          1.59086e-05 1.58818e-05 1.58489e-05 1.58092e-05 1.57616e-05 1.57056e-05 1.56405e-05 1.55664e-05 1.54834e-05 1.53924e-05 1.52945e-05 1.52008e-05
        </DataArray>
        <DataArray type="Float32" Name="moleFrac_n^H2O" NumberOfComponents="1" format="ascii">
          7.22695e-06 8.95609e-10 7.02114e-06 8.95239e-10 9.01469e-10 9.01108e-10 9.06989e-10 9.06625e-10 9.12064e-10 9.11697e-10 9.16633e-10 9.16265e-10
          9.20664e-10 9.20294e-10 9.24151e-10 9.2378e-10 9.27117e-10 9.26744e-10 9.29606e-10 9.29232e-10 9.31669e-10 9.31294e-10 9.33357e-10 9.32982e-10
          9.34725e-10 9.34349e-10 9.35821e-10 9.35445e-10 9.36692e-10 9.36315e-10 9.37378e-10 9.37e-10 9.37913e-10 9.37536e-10 9.38329e-10 9.37951e-10
          9.38648e-10 9.3827e-10 9.38891e-10 9.38513e-10 9.39074e-10 9.38696e-10 9.39208e-10 9.38831e-10 9.39305e-10 9.38927e-10 9.3937e-10 9.38992e-10
          9.39409e-10 9.39031e-10 9.39423e-10 9.39046e-10 9.39416e-10 9.39038e-10 9.39385e-10 9.39007e-10 9.39328e-10 9.3895e-10 9.39242e-10 9.38864e-10
          9.3912e-10 9.38742e-10 9.38954e-10 9.38576e-10 9.38731e-10 9.38354e-10 9.38438e-10 9.38061e-10 9.38056e-10 9.37679e-10 9.37562e-10 9.37185e-10
          9.36929e-10 9.36553e-10 9.36124e-10 9.35747e-10 9.35108e-10 9.34731e-10 9.33837e-10 9.33461e-10 9.32263e-10 9.31888e-10 9.30334e-10 9.2996e-10
          9.27999e-10 9.27626e-10 9.25208e-10 9.24836e-10 9.21918e-10 9.21547e-10 9.18101e-10 9.17732e-10 9.13748e-10 9.13381e-10 9.08877e-10 9.08511e-10
          9.03534e-10 9.03174e-10 8.9783e-10 8.97444e-10 3.43412e-06 2.4102e-06 3.26927e-09 8.94878e-10 9.00744e-10 9.0626e-10 9.11329e-10 9.15897e-10
          9.19925e-10 9.2341e-10 9.26371e-10 9.28858e-10 9.30919e-10 9.32607e-10 9.33973e-10 9.35068e-10 9.35938e-10 9.36624e-10 9.37159e-10 9.37574e-10
          9.37893e-10 9.38136e-10 9.38318e-10 9.38453e-10 9.3855e-10 9.38615e-10 9.38653e-10 9.38668e-10 9.3866e-10 9.38629e-10 9.38573e-10 9.38487e-10
          9.38365e-10 9.38199e-10 9.37976e-10 9.37684e-10 9.37302e-10 9.36809e-10 9.36176e-10 9.35371e-10 9.34355e-10 9.33086e-10 9.31513e-10 9.29586e-10
          9.27253e-10 9.24464e-10 9.21177e-10 9.17363e-10 9.13013e-10 9.08146e-10 9.02808e-10 8.97089e-10 1.67064e-09 9.33074e-10 8.94509e-10 9.00382e-10
          9.05885e-10 9.10845e-10 9.14529e-10 9.18556e-10 9.22043e-10 9.25998e-10 9.28485e-10 9.30545e-10 9.32232e-10 9.33597e-10 9.34692e-10 9.35562e-10
          9.36247e-10 9.36782e-10 9.37197e-10 9.37516e-10 9.37759e-10 9.37941e-10 9.38076e-10 9.38172e-10 9.38237e-10 9.38276e-10 9.3829e-10 9.38283e-10
          9.38252e-10 9.38195e-10 9.38109e-10 9.37987e-10 9.37821e-10 9.37599e-10 9.37306e-10 9.36925e-10 9.36432e-10 9.35799e-10 9.34995e-10 9.3398e-10
          9.3271e-10 9.31138e-10 9.29212e-10 9.2688e-10 9.24092e-10 9.20806e-10 9.16994e-10 9.12646e-10 9.07781e-10 9.02448e-10 8.96704e-10 9.05885e-10
        </DataArray>
        <DataArray type="Float32" Name="moleFrac_n^mesitylene" NumberOfComponents="1" format="ascii">
          2.63728e-11 8.45238e-13 1.32516e-09 2.65503e-10 1.1203e-15 8.3853e-12 1.70725e-14 1.30939e-10 1.47114e-13 1.55299e-09 2.02023e-12 2.5685e-08
          9.44533e-12 8.91907e-08 1.73539e-11 1.44074e-07 2.78028e-17 5.44862e-13 1.84546e-23 7.56145e-19 1.29514e-28 6.70598e-24 2.40832e-34 1.54907e-29
          0 2.12236e-35 0 0 0 0 0 0 0 0 0 0
          0 0 0 0 0 0 0 0 0 0 0 0
          0 0 0 0 0 0 0 0 0 0 0 0
          0 0 0 0 0 0 0 0 0 0 0 0
          0 0 0 0 0 0 0 0 0 0 0 0
          0 0 0 0 0 0 0 0 0 0 0 0
          0 0 0 0 0 0 9.83536e-08 1.09147e-07 1.21119e-07 1.74175e-06 1.95767e-05 0.000266775
          0.000472399 0.000637125 1.04766e-08 5.45092e-14 5.86209e-19 1.69728e-24 2.95982e-30 2.16638e-36 0 0 0 0
          0 0 0 0 0 0 0 0 0 0 0 0
          0 0 0 0 0 0 0 0 0 0 0 0
          0 0 0 0 0 0 0 0 0 7.86277e-06 5.85266e-05 0.000772015
          0.00985985 0.11494 1 1 1 0.000124096 3.53254e-09 3.62889e-14 1.39668e-19 3.12314e-25 2.97412e-31 1.23382e-37
          0 0 0 0 0 0 0 0 0 0 0 0
          0 0 0 0 0 0 0 0 0 0 0 0
          0 0 0 0 0 0 0 0 0 0 0 0
        </DataArray>
        <DataArray type="Float32" Name="moleFrac_n^Air" NumberOfComponents="1" format="ascii">
          0.000882015 0.000895608 0.000882025 0.000895238 0.000901468 0.000901107 0.000906989 0.000906624 0.000912063 0.000911696 0.000916633 0.000916264
          0.000920663 0.000920293 0.000924151 0.00092378 0.000927116 0.000926743 0.000929605 0.000929231 0.000931668 0.000931293 0.000933356 0.000932981
          0.000934724 0.000934348 0.00093582 0.000935444 0.000936691 0.000936314 0.000937377 0.000937 0.000937912 0.000937535 0.000938328 0.00093795
          0.000938647 0.000938269 0.00093889 0.000938512 0.000939073 0.000938695 0.000939208 0.00093883 0.000939304 0.000938926 0.000939369 0.000938991
          0.000939408 0.00093903 0.000939422 0.000939045 0.000939415 0.000939037 0.000939384 0.000939006 0.000939327 0.000938949 0.000939241 0.000938863
          0.000939119 0.000938741 0.000938953 0.000938575 0.00093873 0.000938353 0.000938437 0.00093806 0.000938055 0.000937678 0.000937562 0.000937184
          0.000936928 0.000936552 0.000936123 0.000935746 0.000935107 0.000934731 0.000933836 0.00093346 0.000932262 0.000931887 0.000930334 0.000929959
          0.000927998 0.000927625 0.000925207 0.000924835 0.000921917 0.000921546 0.0009181 0.000917731 0.000913747 0.00091338 0.000908876 0.000908511
          0.000903534 0.000903173 0.000897829 0.000897443 0.000887892 0.000888896 0.000888886 0.000894877 0.000900744 0.000906259 0.000911328 0.000915896
          0.000919924 0.000923409 0.00092637 0.000928857 0.000930918 0.000932606 0.000933972 0.000935067 0.000935938 0.000936623 0.000937158 0.000937573
          0.000937892 0.000938135 0.000938318 0.000938452 0.000938549 0.000938614 0.000938652 0.000938667 0.000938659 0.000938628 0.000938572 0.000938486
          0.000938364 0.000938198 0.000937975 0.000937683 0.000937301 0.000936808 0.000936175 0.00093537 0.000934355 0.000933085 0.000931512 0.000929585
          0.000927252 0.000924463 0.000921176 0.000917362 0.000913013 0.000908146 0.000902808 0.000897088 0.000891233 0.000888688 0.000894508 0.000900381
          0.000905884 0.000910844 0.000914529 0.000918555 0.000922042 0.000925997 0.000928484 0.000930544 0.000932231 0.000933597 0.000934691 0.000935561
          0.000936246 0.000936781 0.000937196 0.000937515 0.000937758 0.00093794 0.000938075 0.000938171 0.000938236 0.000938275 0.00093829 0.000938282
          0.000938251 0.000938194 0.000938108 0.000937987 0.00093782 0.000937598 0.000937306 0.000936924 0.000936431 0.000935798 0.000934994 0.000933979