<?xml version="1.0"?>
<VTKFile type="UnstructuredGrid" version="0.1" byte_order="LittleEndian">
  <UnstructuredGrid>
    <Piece NumberOfCells="384" NumberOfPoints="425">
      <PointData Scalars="pressure_l">
        <DataArray type="Float32" Name="pressure_l" NumberOfComponents="1" format="ascii">
          2.6582e+07 2.65855e+07 2.65616e+07 2.65618e+07 2.6587e+07 2.65631e+07 2.65883e+07 2.65643e+07 2.65895e+07 2.65656e+07 2.65908e+07 2.65668e+07
          2.65921e+07 2.65681e+07 2.65934e+07 2.65694e+07 2.65946e+07 2.65707e+07 2.65959e+07 2.6572e+07 2.65972e+07 2.65733e+07 2.65986e+07 2.65746e+07
          2.66e+07 2.6576e+07 2.66014e+07 2.65774e+07 2.66028e+07 2.65789e+07 2.66043e+07 2.65803e+07 2.66057e+07 2.65818e+07 2.66072e+07 2.65832e+07
          2.66086e+07 2.65847e+07 2.66101e+07 2.65861e+07 2.66115e+07 2.65876e+07 2.66129e+07 2.6589e+07 2.66141e+07 2.65903e+07 2.6615e+07 2.65914e+07
          2.66153e+07 2.65917e+07 2.65374e+07 2.65381e+07 2.65391e+07 2.65403e+07 2.65416e+07 2.65429e+07 2.65442e+07 2.65455e+07 2.65468e+07 2.6548e+07
          2.65492e+07 2.65506e+07 2.6552e+07 2.65535e+07 2.65549e+07 2.65564e+07 2.65578e+07 2.65593e+07 2.65607e+07 2.65622e+07 2.65637e+07 2.65652e+07
          2.65667e+07 2.65682e+07 2.65701e+07 2.6513e+07 2.6514e+07 2.65151e+07 2.65163e+07 2.65176e+07 2.65189e+07 2.65202e+07 2.65216e+07 2.65229e+07
          2.6524e+07 2.65253e+07 2.65265e+07 2.6528e+07 2.65295e+07 2.6531e+07 2.65324e+07 2.65339e+07 2.65353e+07 2.65368e+07 2.65382e+07 2.65398e+07
          2.65413e+07 2.6543e+07 2.6545e+07 2.65488e+07 2.64885e+07 2.64897e+07 2.64909e+07 2.64922e+07 2.64936e+07 2.64949e+07 2.64963e+07 2.64977e+07
          2.6499e+07 2.65002e+07 2.65014e+07 2.65026e+07 2.65041e+07 2.65056e+07 2.6507e+07 2.65084e+07 2.65099e+07 2.65113e+07 2.65128e+07 2.65143e+07
          2.65158e+07 2.65174e+07 2.65192e+07 2.65214e+07 2.65258e+07 2.6464e+07 2.64654e+07 2.64667e+07 2.64681e+07 2.64695e+07 2.64709e+07 2.64723e+07
          2.64737e+07 2.64751e+07 2.64763e+07 2.64775e+07 2.64788e+07 2.64802e+07 2.64816e+07 2.64831e+07 2.64845e+07 2.64859e+07 2.64873e+07 2.64888e+07
          2.64903e+07 2.64918e+07 2.64933e+07 2.64951e+07 2.64971e+07 2.65014e+07 2.64395e+07 2.6441e+07 2.64425e+07 2.6444e+07 2.64455e+07 2.64469e+07
          2.64484e+07 2.64498e+07 2.64512e+07 2.64525e+07 2.64537e+07 2.64549e+07 2.64563e+07 2.64577e+07 2.64591e+07 2.64605e+07 2.64619e+07 2.64633e+07
          2.64648e+07 2.64662e+07 2.64677e+07 2.64691e+07 2.64707e+07 2.64723e+07 2.64748e+07 2.6415e+07 2.64167e+07 2.64183e+07 2.64199e+07 2.64214e+07
          2.64229e+07 2.64244e+07 2.64259e+07 2.64273e+07 2.64286e+07 2.64298e+07 2.6431e+07 2.64324e+07 2.64338e+07 2.64351e+07 2.64365e+07 2.64379e+07
          2.64393e+07 2.64407e+07 2.64421e+07 2.64435e+07 2.64449e+07 2.64462e+07 2.64473e+07 2.64478e+07 2.63906e+07 2.63925e+07 2.63942e+07 2.63958e+07
          2.63974e+07 2.63989e+07 2.64004e+07 2.64019e+07 2.64034e+07 2.64048e+07 2.6406e+07 2.64072e+07 2.64085e+07 2.64098e+07 2.64112e+07 2.64126e+07
          2.64139e+07 2.64153e+07 2.64167e+07 2.64181e+07 2.64194e+07 2.64207e+07 2.64218e+07 2.64226e+07 2.64229e+07 2.63661e+07 2.63681e+07 2.63699e+07
          2.63716e+07 2.63732e+07 2.63747e+07 2.63763e+07 2.63778e+07 2.63794e+07 2.63808e+07 2.6382e+07 2.63832e+07 2.63844e+07 2.63858e+07 2.63871e+07
          2.63884e+07 2.63898e+07 2.63911e+07 2.63924e+07 2.63937e+07 2.63949e+07 2.6396e+07 2.6397e+07 2.63976e+07 2.63979e+07 2.63415e+07 2.63435e+07
          2.63454e+07 2.63471e+07 2.63488e+07 2.63505e+07 2.63521e+07 2.63537e+07 2.63552e+07 2.63565e+07 2.63578e+07 2.6359e+07 2.63603e+07 2.63616e+07
          2.63629e+07 2.63642e+07 2.63655e+07 2.63667e+07 2.63679e+07 2.63691e+07 2.63701e+07 2.6371e+07 2.63718e+07 2.63723e+07 2.63724e+07 2.6317e+07
          2.6319e+07 2.63209e+07 2.63228e+07 2.63245e+07 2.63262e+07 2.63279e+07 2.63295e+07 2.63311e+07 2.63324e+07 2.63336e+07 2.63348e+07 2.63362e+07
          2.63375e+07 2.63387e+07 2.634e+07 2.63412e+07 2.63424e+07 2.63435e+07 2.63445e+07 2.63454e+07 2.63462e+07 2.63468e+07 2.63472e+07 2.63473e+07
          2.62925e+07 2.62946e+07 2.62966e+07 2.62985e+07 2.63003e+07 2.6302e+07 2.63037e+07 2.63053e+07 2.6307e+07 2.63083e+07 2.63096e+07 2.63108e+07
          2.63121e+07 2.63134e+07 2.63146e+07 2.63158e+07 2.6317e+07 2.6318e+07 2.63191e+07 2.632e+07 2.63208e+07 2.63215e+07 2.63221e+07 2.63224e+07
          2.63225e+07 2.6268e+07 2.62702e+07 2.62723e+07 2.62743e+07 2.62761e+07 2.62779e+07 2.62796e+07 2.62812e+07 2.62829e+07 2.62843e+07 2.62856e+07
          2.62868e+07 2.62881e+07 2.62893e+07 2.62905e+07 2.62917e+07 2.62928e+07 2.62938e+07 2.62948e+07 2.62957e+07 2.62964e+07 2.6297e+07 2.62975e+07
          2.62978e+07 2.62979e+07 2.62436e+07 2.62461e+07 2.62482e+07 2.62502e+07 2.6252e+07 2.62538e+07 2.62555e+07 2.62571e+07 2.62587e+07 2.62602e+07
          2.62616e+07 2.62629e+07 2.6264e+07 2.62652e+07 2.62664e+07 2.62676e+07 2.62686e+07 2.62696e+07 2.62706e+07 2.62714e+07 2.62721e+07 2.62727e+07
          2.62732e+07 2.62734e+07 2.62735e+07 2.62194e+07 2.62225e+07 2.62243e+07 2.62262e+07 2.6228e+07 2.62297e+07 2.62314e+07 2.6233e+07 2.62346e+07
          2.62361e+07 2.62375e+07 2.62388e+07 2.624e+07 2.62412e+07 2.62424e+07 2.62435e+07 2.62446e+07 2.62456e+07 2.62465e+07 2.62473e+07 2.6248e+07
          2.62485e+07 2.62489e+07 2.62492e+07 2.62493e+07 2.61998e+07 2.61988e+07 2.62004e+07 2.62022e+07 2.6204e+07 2.62057e+07 2.62074e+07 2.6209e+07
          2.62106e+07 2.62121e+07 2.62135e+07 2.62148e+07 2.62161e+07 2.62172e+07 2.62184e+07 2.62195e+07 2.62206e+07 2.62216e+07 2.62225e+07 2.62233e+07
          2.62239e+07 2.62245e+07 2.62249e+07 2.62252e+07 2.62252e+07
        </DataArray>
        <DataArray type="Float32" Name="pressure_g" NumberOfComponents="1" format="ascii">
          2.6592e+07 2.65955e+07 2.65716e+07 2.65718e+07 2.6597e+07 2.65731e+07 2.65983e+07 2.65743e+07 2.65995e+07 2.65756e+07 2.66008e+07 2.65768e+07
          2.66021e+07 2.65781e+07 2.66034e+07 2.65794e+07 2.66046e+07 2.65807e+07 2.66059e+07 2.6582e+07 2.66072e+07 2.65833e+07 2.66086e+07 2.65846e+07
          2.661e+07 2.6586e+07 2.66114e+07 2.65874e+07 2.66128e+07 2.65889e+07 2.66143e+07 2.65903e+07 2.66157e+07 2.65918e+07 2.66172e+07 2.65932e+07
          2.66186e+07 2.65947e+07 2.66201e+07 2.65961e+07 2.66215e+07 2.65976e+07 2.66229e+07 2.6599e+07 2.66241e+07 2.66003e+07 2.6625e+07 2.66014e+07
          2.66253e+07 2.66017e+07 2.65474e+07 2.65481e+07 2.65491e+07 2.65503e+07 2.65516e+07 2.65529e+07 2.65542e+07 2.65555e+07 2.65568e+07 2.6558e+07
          2.65592e+07 2.65606e+07 2.6562e+07 2.65635e+07 2.65649e+07 2.65664e+07 2.65678e+07 2.65693e+07 2.65707e+07 2.65722e+07 2.65737e+07 2.65752e+07
          2.65767e+07 2.65782e+07 2.65804e+07 2.6523e+07 2.6524e+07 2.65251e+07 2.65263e+07 2.65276e+07 2.65289e+07 2.65302e+07 2.65316e+07 2.65329e+07
          2.6534e+07 2.65353e+07 2.65365e+07 2.6538e+07 2.65395e+07 2.6541e+07 2.65424e+07 2.65439e+07 2.65453e+07 2.65468e+07 2.65482e+07 2.65498e+07
          2.65513e+07 2.6553e+07 2.6555e+07 2.65595e+07 2.64985e+07 2.64997e+07 2.65009e+07 2.65022e+07 2.65036e+07 2.65049e+07 2.65063e+07 2.65077e+07
          2.6509e+07 2.65102e+07 2.65114e+07 2.65126e+07 2.65141e+07 2.65156e+07 2.6517e+07 2.65184e+07 2.65199e+07 2.65213e+07 2.65228e+07 2.65243e+07
          2.65258e+07 2.65274e+07 2.65292e+07 2.65314e+07 2.65365e+07 2.6474e+07 2.64754e+07 2.64767e+07 2.64781e+07 2.64795e+07 2.64809e+07 2.64823e+07
          2.64837e+07 2.64851e+07 2.64863e+07 2.64875e+07 2.64888e+07 2.64902e+07 2.64916e+07 2.64931e+07 2.64945e+07 2.64959e+07 2.64973e+07 2.64988e+07
          2.65003e+07 2.65018e+07 2.65033e+07 2.65051e+07 2.65071e+07 2.65121e+07 2.64495e+07 2.6451e+07 2.64525e+07 2.6454e+07 2.64555e+07 2.64569e+07
          2.64584e+07 2.64598e+07 2.64612e+07 2.64625e+07 2.64637e+07 2.64649e+07 2.64663e+07 2.64677e+07 2.64691e+07 2.64705e+07 2.64719e+07 2.64733e+07
          2.64748e+07 2.64762e+07 2.64777e+07 2.64791e+07 2.64807e+07 2.64823e+07 2.64852e+07 2.6425e+07 2.64267e+07 2.64283e+07 2.64299e+07 2.64314e+07
          2.64329e+07 2.64344e+07 2.64359e+07 2.64373e+07 2.64386e+07 2.64398e+07 2.6441e+07 2.64424e+07 2.64438e+07 2.64451e+07 2.64465e+07 2.64479e+07
          2.64493e+07 2.64507e+07 2.64521e+07 2.64535e+07 2.64549e+07 2.64562e+07 2.64573e+07 2.64578e+07 2.64006e+07 2.64025e+07 2.64042e+07 2.64058e+07
          2.64074e+07 2.64089e+07 2.64104e+07 2.64119e+07 2.64134e+07 2.64148e+07 2.6416e+07 2.64172e+07 2.64185e+07 2.64198e+07 2.64212e+07 2.64226e+07
          2.64239e+07 2.64253e+07 2.64267e+07 2.64281e+07 2.64294e+07 2.64307e+07 2.64318e+07 2.64326e+07 2.64329e+07 2.63761e+07 2.63781e+07 2.63799e+07
          2.63816e+07 2.63832e+07 2.63847e+07 2.63863e+07 2.63878e+07 2.63894e+07 2.63908e+07 2.6392e+07 2.63932e+07 2.63944e+07 2.63958e+07 2.63971e+07
          2.63984e+07 2.63998e+07 2.64011e+07 2.64024e+07 2.64037e+07 2.64049e+07 2.6406e+07 2.6407e+07 2.64076e+07 2.64079e+07 2.63515e+07 2.63535e+07
          2.63554e+07 2.63571e+07 2.63588e+07 2.63605e+07 2.63621e+07 2.63637e+07 2.63652e+07 2.63665e+07 2.63678e+07 2.6369e+07 2.63703e+07 2.63716e+07
          2.63729e+07 2.63742e+07 2.63755e+07 2.63767e+07 2.63779e+07 2.63791e+07 2.63801e+07 2.6381e+07 2.63818e+07 2.63823e+07 2.63824e+07 2.6327e+07
          2.6329e+07 2.63309e+07 2.63328e+07 2.63345e+07 2.63362e+07 2.63379e+07 2.63395e+07 2.63411e+07 2.63424e+07 2.63436e+07 2.63448e+07 2.63462e+07
          2.63475e+07 2.63487e+07 2.635e+07 2.63512e+07 2.63524e+07 2.63535e+07 2.63545e+07 2.63554e+07 2.63562e+07 2.63568e+07 2.63572e+07 2.63573e+07
          2.63025e+07 2.63046e+07 2.63066e+07 2.63085e+07 2.63103e+07 2.6312e+07 2.63137e+07 2.63153e+07 2.6317e+07 2.63183e+07 2.63196e+07 2.63208e+07
          2.63221e+07 2.63234e+07 2.63246e+07 2.63258e+07 2.6327e+07 2.6328e+07 2.63291e+07 2.633e+07 2.63308e+07 2.63315e+07 2.63321e+07 2.63324e+07
          2.63325e+07 2.6278e+07 2.62802e+07 2.62823e+07 2.62843e+07 2.62861e+07 2.62879e+07 2.62896e+07 2.62912e+07 2.62929e+07 2.62943e+07 2.62956e+07
          2.62968e+07 2.62981e+07 2.62993e+07 2.63005e+07 2.63017e+07 2.63028e+07 2.63038e+07 2.63048e+07 2.63057e+07 2.63064e+07 2.6307e+07 2.63075e+07
          2.63078e+07 2.63079e+07 2.62536e+07 2.62561e+07 2.62582e+07 2.62602e+07 2.6262e+07 2.62638e+07 2.62655e+07 2.62671e+07 2.62687e+07 2.62702e+07
          2.62716e+07 2.62729e+07 2.6274e+07 2.62752e+07 2.62764e+07 2.62776e+07 2.62786e+07 2.62796e+07 2.62806e+07 2.62814e+07 2.62821e+07 2.62827e+07
          2.62832e+07 2.62834e+07 2.62835e+07 2.62294e+07 2.62325e+07 2.62343e+07 2.62362e+07 2.6238e+07 2.62397e+07 2.62414e+07 2.6243e+07 2.62446e+07
          2.62461e+07 2.62475e+07 2.62488e+07 2.625e+07 2.62512e+07 2.62524e+07 2.62535e+07 2.62546e+07 2.62556e+07 2.62565e+07 2.62573e+07 2.6258e+07
          2.62585e+07 2.62589e+07 2.62592e+07 2.62593e+07 2.62098e+07 2.62088e+07 2.62104e+07 2.62122e+07 2.6214e+07 2.62157e+07 2.62174e+07 2.6219e+07
          2.62206e+07 2.62221e+07 2.62235e+07 2.62248e+07 2.62261e+07 2.62272e+07 2.62284e+07 2.62295e+07 2.62306e+07 2.62316e+07 2.62325e+07 2.62333e+07
          2.62339e+07 2.62345e+07 2.62349e+07 2.62352e+07 2.62352e+07
        </DataArray>
        <DataArray type="Float32" Name="density_l" NumberOfComponents="1" format="ascii">
          976.466 976.465 976.498 976.502 976.464 976.503 976.465 976.503 976.465 976.504 976.466 976.504
          976.466 976.505 976.467 976.505 976.467 976.506 976.468 976.506 976.468 976.507 976.469 976.507
          976.469 976.508 976.47 976.508 976.471 976.509 976.471 976.509 976.472 976.51 976.472 976.511
          976.473 976.511 976.473 976.512 976.474 976.512 976.475 976.513 976.475 976.514 976.476 976.514
          976.476 976.515 976.536 976.541 976.541 976.541 976.542 976.542 976.543 976.544 976.544 976.544
          976.545 976.545 976.546 976.547 976.547 976.548 976.548 976.549 976.549 976.55 976.551 976.551
          976.552 976.553 976.554 976.574 976.579 976.579 976.58 976.58 976.581 976.581 976.579 976.352
          965.515 965.529 965.825 976.584 976.585 976.585 976.586 976.587 976.587 976.588 976.588 976.589
          976.589 976.59 976.591 976.593 976.612 976.617 976.617 976.618 976.618 976.619 976.62 976.617
          976.383 965.484 965.489 965.768 976.623 976.623 976.624 976.624 976.625 976.625 976.626 976.627
          976.627 976.628 976.628 976.629 976.631 976.65 976.655 976.656 976.656 976.657 976.657 976.658
          976.655 976.415 965.473 965.478 965.752 976.661 976.662 976.662 976.663 976.663 976.664 976.664
          976.665 976.665 976.666 976.667 976.667 976.669 976.688 976.693 976.694 976.694 976.695 976.696
          976.696 976.693 976.448 965.463 965.467 965.737 976.699 976.7 976.7 976.701 976.701 976.702
          976.703 976.703 976.704 976.704 976.704 976.705 976.705 976.727 976.731 976.732 976.733 976.733
          976.734 976.734 976.731 976.477 965.452 965.456 965.719 976.738 976.738 976.739 976.739 976.74
          976.74 976.741 976.741 976.742 976.742 976.742 976.742 976.742 976.765 976.77 976.77 976.771
          976.772 976.772 976.773 976.769 976.499 965.441 965.445 965.693 976.776 976.776 976.777 976.778
          976.778 976.779 976.779 976.78 976.78 976.781 976.781 976.781 976.781 976.807 976.808 976.809
          976.809 976.81 976.81 976.811 976.812 976.784 965.431 965.431 965.457 976.814 976.815 976.815
          976.816 976.816 976.817 976.817 976.818 976.818 976.819 976.819 976.819 976.819 976.845 976.846
          976.847 976.847 976.848 976.849 976.849 976.85 976.823 965.42 965.421 965.447 976.852 976.853
          976.854 976.854 976.854 976.855 976.855 976.856 976.856 976.857 976.857 976.857 976.857 976.883
          976.884 976.885 976.885 976.886 976.887 976.888 976.888 976.861 965.409 965.41 965.437 976.891
          976.891 976.892 976.892 976.893 976.893 976.894 976.894 976.894 976.895 976.895 976.895 976.895
          976.921 976.922 976.923 976.924 976.924 976.925 976.926 976.926 976.899 965.398 965.399 965.426
          976.929 976.93 976.93 976.93 976.931 976.931 976.932 976.932 976.932 976.933 976.933 976.933
          976.933 976.959 976.96 976.961 976.962 976.963 976.963 976.964 976.965 976.935 965.388 965.388
          965.414 976.967 976.968 976.968 976.969 976.969 976.97 976.97 976.97 976.971 976.971 976.971
          976.971 976.971 976.997 976.999 977 977 977.001 977.002 977.002 977.003 977.004 976.999
          977 977.002 977.006 977.006 977.007 977.007 977.007 977.008 977.008 977.008 977.009 977.009
          977.009 977.009 977.009 977.036 977.037 977.038 977.039 977.039 977.04 977.041 977.041 977.042
          977.042 977.043 977.043 977.044 977.044 977.045 977.045 977.046 977.046 977.046 977.047 977.047
          977.047 977.047 977.048 977.048 977.076 977.076 977.076 977.077 977.078 977.078 977.079 977.08
          977.08 977.081 977.081 977.082 977.082 977.083 977.083 977.084 977.084 977.084 977.085 977.085
          977.085 977.086 977.086 977.086 977.086
        </DataArray>
        <DataArray type="Float32" Name="density_g" NumberOfComponents="1" format="ascii">
          246.144 246.173 245.997 246.003 246.185 246.015 246.197 246.026 246.209 246.038 246.22 246.049
          246.232 246.061 246.244 246.073 246.256 246.085 246.268 246.097 246.28 246.108 246.292 246.121
          246.305 246.134 246.318 246.147 246.331 246.16 246.345 246.174 246.358 246.187 246.371 246.2
          246.385 246.214 246.398 246.227 246.411 246.241 246.424 246.254 246.436 246.266 246.444 246.276
          246.447 246.28 245.823 245.834 245.844 245.855 245.866 245.878 245.89 245.902 245.914 245.925
          245.937 245.949 245.962 245.976 245.989 246.003 246.016 246.029 246.043 246.056 246.07 246.084
          246.098 246.112 246.133 245.647 245.661 245.672 245.683 245.695 245.707 245.719 245.728 245.504
          235.278 235.301 235.568 245.791 245.805 245.818 245.831 245.845 245.858 245.872 245.885 245.899
          245.914 245.929 245.947 245.989 245.471 245.487 245.498 245.51 245.523 245.535 245.548 245.557
          245.326 235.05 235.064 235.316 245.62 245.633 245.647 245.66 245.673 245.687 245.7 245.714
          245.728 245.743 245.759 245.779 245.826 245.295 245.312 245.325 245.338 245.351 245.363 245.376
          245.386 245.149 234.838 234.852 235.099 245.449 245.462 245.475 245.489 245.502 245.515 245.528
          245.542 245.556 245.57 245.586 245.605 245.651 245.119 245.137 245.151 245.165 245.178 245.192
          245.205 245.215 244.972 234.626 234.64 234.883 245.278 245.291 245.304 245.317 245.33 245.343
          245.356 245.37 245.383 245.396 245.41 245.425 245.451 244.943 244.962 244.977 244.992 245.006
          245.02 245.033 245.043 244.792 234.415 234.429 234.665 245.107 245.12 245.133 245.145 245.158
          245.171 245.184 245.197 245.21 245.222 245.234 245.244 245.247 244.767 244.788 244.804 244.819
          244.834 244.848 244.861 244.871 244.604 234.203 234.217 234.441 244.936 244.948 244.961 244.974
          244.986 244.999 245.012 245.025 245.037 245.048 245.059 245.066 245.069 244.594 244.613 244.629
          244.645 244.66 244.674 244.688 244.703 244.688 233.99 234.002 234.034 244.764 244.776 244.788
          244.801 244.813 244.825 244.837 244.849 244.86 244.871 244.88 244.886 244.888 244.416 244.435
          244.452 244.469 244.484 244.499 244.514 244.529 244.515 233.776 233.787 233.82 244.59 244.602
          244.614 244.626 244.638 244.65 244.661 244.671 244.681 244.689 244.696 244.701 244.702 244.239
          244.258 244.276 244.293 244.309 244.325 244.34 244.355 244.341 233.562 233.573 233.606 244.417
          244.429 244.441 244.452 244.463 244.474 244.484 244.494 244.502 244.51 244.515 244.519 244.52
          244.062 244.082 244.101 244.118 244.135 244.151 244.166 244.182 244.167 233.348 233.359 233.392
          244.244 244.256 244.267 244.278 244.289 244.299 244.309 244.317 244.325 244.331 244.336 244.339
          244.34 243.886 243.907 243.926 243.944 243.961 243.977 243.993 244.008 243.992 233.135 233.147
          233.179 244.071 244.083 244.094 244.105 244.115 244.125 244.133 244.142 244.149 244.154 244.159
          244.161 244.162 243.709 243.733 243.753 243.771 243.788 243.804 243.82 243.835 243.849 243.858
          243.872 243.885 243.899 243.91 243.921 243.931 243.941 243.951 243.959 243.967 243.974 243.979
          243.983 243.985 243.986 243.536 243.564 243.581 243.598 243.615 243.631 243.647 243.662 243.676
          243.69 243.703 243.715 243.726 243.737 243.748 243.758 243.768 243.777 243.786 243.793 243.8
          243.805 243.809 243.811 243.812 243.404 243.395 243.409 243.426 243.442 243.458 243.474 243.489
          243.504 243.517 243.53 243.542 243.554 243.565 243.576 243.586 243.596 243.605 243.613 243.621
          243.627 243.632 243.636 243.638 243.639
        </DataArray>
        <DataArray type="Float32" Name="saturation_l" NumberOfComponents="1" format="ascii">
          1 1 1 1 1 1 1 1 1 1 1 1
          1 1 1 1 1 1 1 1 1 1 1 1
          1 1 1 1 1 1 1 1 1 1 1 1
          1 1 1 1 1 1 1 1 1 1 1 1
          1 1 1 1 1 1 1 1 1 1 1 1
          1 1 1 1 1 1 1 1 1 1 1 1
          1 0.999874 0.946964 1 1 1 1 1 1 1 1 1
          1 1 1 1 1 1 1 1 1 1 1 1
          1 1 0.9984 0.900492 1 1 1 1 1 1 1 1
          1 1 1 1 1 1 1 1 1 1 1 1
          1 1 1 0.997982 0.896657 1 1 1 1 1 1 1
          1 1 1 1 1 1 1 1 1 1 1 1
          1 1 1 1 0.998088 0.896195 1 1 1 1 1 1
          1 1 1 1 1 1 1 1 1 1 1 1
          1 1 1 1 1 0.99979 0.939114 1 1 1 1 1
          1 1 1 1 1 1 1 1 1 1 1 1
          1 1 1 1 1 1 1 0.99836 1 1 1 1
          1 1 1 1 1 1 1 1 1 1 1 1
          1 1 1 1 1 1 1 1 1 1 1 1
          1 1 1 1 1 1 1 1 1 1 1 1
          1 1 1 1 1 1 1 1 1 1 1 1
          1 1 1 1 1 1 1 1 1 1 1 1
          1 1 1 1 1 1 1 1 1 1 1 1
          1 1 1 1 1 1 1 1 1 1 1 1
          1 1 1 1 1 1 1 1 1 1 1 1
          1 1 1 1 1 1 1 1 1 1 1 1
          1 1 1 1 1 1 1 1 1 1 1 1
          1 1 1 1 1 1 1 1 1 1 1 1
          1 1 1 1 1 1 1 1 1 1 1 1
          1 1 1 1 1 1 1 1 1 1 1 1
          1 1 1 1 1 1 1 1 1 1 1 1
          1 1 1 1 1 1 1 1 1 1 1 1
          1 1 1 1 1 1 1 1 1 1 1 1
          1 1 1 1 1 1 1 1 1 1 1 1
          1 1 1 1 1 1 1 1 1 1 1 1
          1 1 1 1 1
        </DataArray>
        <DataArray type="Float32" Name="saturation_g" NumberOfComponents="1" format="ascii">
          0 0 0 0 0 0 0 0 0 0 0 0
          0 0 0 0 0 0 0 0 0 0 0 0
          0 0 0 0 0 0 0 0 0 0 0 0
          0 0 0 0 0 0 0 0 0 0 0 0
          0 0 0 0 0 0 0 0 0 0 0 0
          0 0 0 0 0 0 0 0 0 0 0 6.41181e-38
          6.84254e-13 0.000126208 0.0530361 0 0 0 0 0 0 0 0 0
          0 0 0 0 0 0 0 0 0 0 0 0
          1.56426e-27 1.79895e-09 0.00159994 0.0995081 0 0 0 0 0 0 0 0
          0 0 0 0 0 0 0 0 0 0 0 0
          0 1.68022e-26 3.92246e-09 0.00201791 0.103343 0 0 0 0 0 0 0
          0 0 0 0 0 0 0 0 0 0 0 0
          0 0 7.99806e-27 3.10491e-09 0.00191246 0.103805 0 0 0 0 0 0
          0 0 0 0 0 0 0 0 0 0 0 0
          0 0 0 5.78211e-36 3.09634e-12 0.00021046 0.060886 0 0 0 0 0
          0 0 0 0 0 0 0 0 0 0 0 0
          0 0 0 0 0 6.29999e-29 7.07388e-10 0.0016399 0 0 0 0
          0 0 0 0 0 0 0 0 0 0 0 0
          0 0 0 0 0 0 0 2.7333e-25 1.77707e-08 0 0 0
          0 0 0 0 0 0 0 0 0 0 0 0
          0 0 0 0 0 0 0 0 0 2.99724e-24 0 0
          0 0 0 0 0 0 0 0 0 0 0 0
          0 0 0 0 0 0 0 0 0 0 0 0
          0 0 0 0 0 0 0 0 0 0 0 0
          0 0 0 0 0 0 0 0 0 0 0 0
          0 0 0 0 0 0 0 0 0 0 0 0
          0 0 0 0 0 0 0 0 0 0 0 0
          0 0 0 0 0 0 0 0 0 0 0 0
          0 0 0 0 0 0 0 0 0 0 0 0
          0 0 0 0 0 0 0 0 0 0 0 0
          0 0 0 0 0 0 0 0 0 0 0 0
          0 0 0 0 0 0 0 0 0 0 0 0
          0 0 0 0 0 0 0 0 0 0 0 0
          0 0 0 0 0 0 0 0 0 0 0 0
          0 0 0 0 0 0 0 0 0 0 0 0
          0 0 0 0 0
        </DataArray>
        <DataArray type="Float32" Name="relativePerm_l" NumberOfComponents="1" format="ascii">
          1 1 1 1 1 1 1 1 1 1 1 1
          1 1 1 1 1 1 1 1 1 1 1 1
          1 1 1 1 1 1 1 1 1 1 1 1
          1 1 1 1 1 1 1 1 1 1 1 1
          1 1 1 1 1 1 1 1 1 1 1 1
          1 1 1 1 1 1 1 1 1 1 1 1
          1 0.999369 0.760044 1 1 1 1 1 1 1 1 1
          1 1 1 1 1 1 1 1 1 1 1 1
          1 1 0.992024 0.587831 1 1 1 1 1 1 1 1
          1 1 1 1 1 1 1 1 1 1 1 1
          1 1 1 0.989949 0.575063 1 1 1 1 1 1 1
          1 1 1 1 1 1 1 1 1 1 1 1
          1 1 1 1 0.990472 0.57354 1 1 1 1 1 1
          1 1 1 1 1 1 1 1 1 1 1 1
          1 1 1 1 1 0.998948 0.728594 1 1 1 1 1
          1 1 1 1 1 1 1 1 1 1 1 1
          1 1 1 1 1 1 1 0.991826 1 1 1 1
          1 1 1 1 1 1 1 1 1 1 1 1
          1 1 1 1 1 1 1 1 1 1 1 1
          1 1 1 1 1 1 1 1 1 1 1 1
          1 1 1 1 1 1 1 1 1 1 1 1
          1 1 1 1 1 1 1 1 1 1 1 1
          1 1 1 1 1 1 1 1 1 1 1 1
          1 1 1 1 1 1 1 1 1 1 1 1
          1 1 1 1 1 1 1 1 1 1 1 1
          1 1 1 1 1 1 1 1 1 1 1 1
          1 1 1 1 1 1 1 1 1 1 1 1
          1 1 1 1 1 1 1 1 1 1 1 1
          1 1 1 1 1 1 1 1 1 1 1 1
          1 1 1 1 1 1 1 1 1 1 1 1
          1 1 1 1 1 1 1 1 1 1 1 1
          1 1 1 1 1 1 1 1 1 1 1 1
          1 1 1 1 1 1 1 1 1 1 1 1
          1 1 1 1 1 1 1 1 1 1 1 1
          1 1 1 1 1 1 1 1 1 1 1 1
          1 1 1 1 1
        </DataArray>
        <DataArray type="Float32" Name="relativePerm_g" NumberOfComponents="1" format="ascii">
          0 0 0 0 0 0 0 0 0 0 0 0
          0 0 0 0 0 0 0 0 0 0 0 0
          0 0 0 0 0 0 0 0 0 0 0 0
          0 0 0 0 0 0 0 0 0 0 0 0
          0 0 0 0 0 0 0 0 0 0 0 0
          0 0 0 0 0 0 0 0 0 0 0 0
          1.25193e-36 7.85207e-12 0.000563424 0 0 0 0 0 0 0 0 0
          0 0 0 0 0 0 0 0 0 0 0 0
          0 2.27415e-26 1.59821e-08 0.00360952 0 0 0 0 0 0 0 0
          0 0 0 0 0 0 0 0 0 0 0 0
          0 0 2.35741e-25 3.20567e-08 0.00403282 0 0 0 0 0 0 0
          0 0 0 0 0 0 0 0 0 0 0 0
          0 0 0 1.16925e-25 2.7291e-08 0.00408586 0 0 0 0 0 0
          0 0 0 0 0 0 0 0 0 0 0 0
          0 0 0 0 1.15963e-34 3.64094e-11 0.000848131 0 0 0 0 0
          0 0 0 0 0 0 0 0 0 0 0 0
          0 0 0 0 0 0 1.38272e-27 1.72095e-08 0 0 0 0
          0 0 0 0 0 0 0 0 0 0 0 0
          0 0 0 0 0 0 0 0 2.19216e-23 0 0 0
          0 0 0 0 0 0 0 0 0 0 0 0
          0 0 0 0 0 0 0 0 0 0 0 0
          0 0 0 0 0 0 0 0 0 0 0 0
          0 0 0 0 0 0 0 0 0 0 0 0
          0 0 0 0 0 0 0 0 0 0 0 0
          0 0 0 0 0 0 0 0 0 0 0 0
          0 0 0 0 0 0 0 0 0 0 0 0
          0 0 0 0 0 0 0 0 0 0 0 0
          0 0 0 0 0 0 0 0 0 0 0 0
          0 0 0 0 0 0 0 0 0 0 0 0
          0 0 0 0 0 0 0 0 0 0 0 0
          0 0 0 0 0 0 0 0 0 0 0 0
          0 0 0 0 0 0 0 0 0 0 0 0
          0 0 0 0 0 0 0 0 0 0 0 0
          0 0 0 0 0 0 0 0 0 0 0 0
          0 0 0 0 0 0 0 0 0 0 0 0
          0 0 0 0 0
        </DataArray>
        <DataArray type="Float32" Name="porosity" NumberOfComponents="1" format="ascii">
          0.3 0.3 0.3 0.3 0.3 0.3 0.3 0.3 0.3 0.3 0.3 0.3
          0.3 0.3 0.3 0.3 0.3 0.3 0.3 0.3 0.3 0.3 0.3 0.3
          0.3 0.3 0.3 0.3 0.3 0.3 0.3 0.3 0.3 0.3 0.3 0.3
          0.3 0.3 0.3 0.3 0.3 0.3 0.3 0.3 0.3 0.3 0.3 0.3
          0.3 0.3 0.3 0.3 0.3 0.3 0.3 0.3 0.3 0.3 0.3 0.3
          0.3 0.3 0.3 0.3 0.3 0.3 0.3 0.3 0.3 0.3 0.3 0.3
          0.3 0.3 0.3 0.3 0.3 0.3 0.3 0.3 0.3 0.3 0.3 0.3
          0.3 0.3 0.3 0.3 0.3 0.3 0.3 0.3 0.3 0.3 0.3 0.3
          0.3 0.3 0.3 0.3 0.3 0.3 0.3 0.3 0.3 0.3 0.3 0.3
          0.3 0.3 0.3 0.3 0.3 0.3 0.3 0.3 0.3 0.3 0.3 0.3
          0.3 0.3 0.3 0.3 0.3 0.3 0.3 0.3 0.3 0.3 0.3 0.3
          0.3 0.3 0.3 0.3 0.3 0.3 0.3 0.3 0.3 0.3 0.3 0.3
          0.3 0.3 0.3 0.3 0.3 0.3 0.3 0.3 0.3 0.3 0.3 0.3
          0.3 0.3 0.3 0.3 0.3 0.3 0.3 0.3 0.3 0.3 0.3 0.3
          0.3 0.3 0.3 0.3 0.3 0.3 0.3 0.3 0.3 0.3 0.3 0.3
          0.3 0.3 0.3 0.3 0.3 0.3 0.3 0.3 0.3 0.3 0.3 0.3
          0.3 0.3 0.3 0.3 0.3 0.3 0.3 0.3 0.3 0.3 0.3 0.3
          0.3 0.3 0.3 0.3 0.3 0.3 0.3 0.3 0.3 0.3 0.3 0.3
          0.3 0.3 0.3 0.3 0.3 0.3 0.3 0.3 0.3 0.3 0.3 0.3
          0.3 0.3 0.3 0.3 0.3 0.3 0.3 0.3 0.3 0.3 0.3 0.3
          0.3 0.3 0.3 0.3 0.3 0.3 0.3 0.3 0.3 0.3 0.3 0.3
          0.3 0.3 0.3 0.3 0.3 0.3 0.3 0.3 0.3 0.3 0.3 0.3
          0.3 0.3 0.3 0.3 0.3 0.3 0.3 0.3 0.3 0.3 0.3 0.3
          0.3 0.3 0.3 0.3 0.3 0.3 0.3 0.3 0.3 0.3 0.3 0.3
          0.3 0.3 0.3 0.3 0.3 0.3 0.3 0.3 0.3 0.3 0.3 0.3
          0.3 0.3 0.3 0.3 0.3 0.3 0.3 0.3 0.3 0.3 0.3 0.3
          0.3 0.3 0.3 0.3 0.3 0.3 0.3 0.3 0.3 0.3 0.3 0.3
          0.3 0.3 0.3 0.3 0.3 0.3 0.3 0.3 0.3 0.3 0.3 0.3
          0.3 0.3 0.3 0.3 0.3 0.3 0.3 0.3 0.3 0.3 0.3 0.3
          0.3 0.3 0.3 0.3 0.3 0.3 0.3 0.3 0.3 0.3 0.3 0.3
          0.3 0.3 0.3 0.3 0.3 0.3 0.3 0.3 0.3 0.3 0.3 0.3
          0.3 0.3 0.3 0.3 0.3 0.3 0.3 0.3 0.3 0.3 0.3 0.3
          0.3 0.3 0.3 0.3 0.3 0.3 0.3 0.3 0.3 0.3 0.3 0.3
          0.3 0.3 0.3 0.3 0.3 0.3 0.3 0.3 0.3 0.3 0.3 0.3
          0.3 0.3 0.3 0.3 0.3 0.3 0.3 0.3 0.3 0.3 0.3 0.3
          0.3 0.3 0.3 0.3 0.3
        </DataArray>
        <DataArray type="Float32" Name="temperature" NumberOfComponents="1" format="ascii">
          363.994 363.998 363.932 363.925 364 363.925 364 363.925 364 363.925 364 363.925
          364 363.925 364 363.925 364 363.925 364.001 363.926 364.001 363.926 364.001 363.926
          364.001 363.926 364.001 363.926 364.001 363.926 364.001 363.926 364.001 363.926 364.001 363.926
          364.001 363.926 364.001 363.926 364.001 363.926 364.001 363.926 364.001 363.926 364.001 363.926
          364.001 363.925 363.857 363.85 363.85 363.85 363.85 363.85 363.85 363.85 363.851 363.851
          363.851 363.851 363.851 363.851 363.851 363.851 363.851 363.851 363.851 363.851 363.852 363.851
          363.851 363.851 363.85 363.782 363.775 363.775 363.775 363.775 363.775 363.775 363.78 364.131
          379.973 379.953 379.541 363.776 363.776 363.776 363.776 363.776 363.776 363.776 363.776 363.777
          363.777 363.777 363.777 363.777 363.707 363.701 363.7 363.7 363.7 363.7 363.701 363.705
          364.067 380.001 379.995 379.606 363.701 363.701 363.701 363.701 363.701 363.701 363.701 363.702
          363.702 363.702 363.702 363.702 363.703 363.632 363.626 363.625 363.625 363.625 363.625 363.626
          363.631 364.002 380.001 379.995 379.614 363.626 363.626 363.626 363.626 363.626 363.626 363.627
          363.627 363.627 363.627 363.627 363.628 363.628 363.557 363.551 363.551 363.55 363.55 363.551
          363.551 363.556 363.936 380.001 379.996 379.62 363.551 363.551 363.551 363.551 363.551 363.551
          363.552 363.552 363.552 363.552 363.553 363.553 363.555 363.482 363.476 363.475 363.475 363.475
          363.476 363.476 363.481 363.875 380.001 379.996 379.631 363.476 363.476 363.476 363.476 363.476
          363.477 363.477 363.477 363.477 363.477 363.478 363.479 363.479 363.407 363.4 363.4 363.4
          363.401 363.401 363.401 363.407 363.825 380.001 379.996 379.651 363.401 363.401 363.401 363.401
          363.401 363.402 363.402 363.402 363.402 363.402 363.402 363.403 363.403 363.326 363.325 363.325
          363.325 363.325 363.326 363.326 363.326 363.37 380.001 380.001 379.966 363.326 363.326 363.326
          363.326 363.326 363.327 363.327 363.327 363.327 363.327 363.327 363.327 363.327 363.251 363.25
          363.25 363.25 363.25 363.251 363.251 363.251 363.293 380.001 380.001 379.964 363.251 363.251
          363.251 363.251 363.251 363.252 363.252 363.252 363.252 363.252 363.252 363.252 363.252 363.176
          363.175 363.175 363.175 363.175 363.176 363.176 363.176 363.218 380.001 380.001 379.964 363.176
          363.176 363.176 363.176 363.176 363.177 363.177 363.177 363.177 363.177 363.177 363.177 363.177
          363.101 363.1 363.1 363.1 363.1 363.101 363.101 363.101 363.145 380.001 380.001 379.965
          363.101 363.101 363.101 363.101 363.101 363.102 363.102 363.102 363.102 363.102 363.102 363.102
          363.102 363.026 363.025 363.025 363.025 363.026 363.026 363.026 363.026 363.072 380.001 380.001