<?xml version="1.0"?>
<VTKFile type="UnstructuredGrid" version="0.1" byte_order="LittleEndian">
  <UnstructuredGrid>
    <Piece NumberOfCells="384" NumberOfPoints="425">
      <PointData Scalars="pressure_l">
        <DataArray type="Float32" Name="pressure_l" NumberOfComponents="1" format="ascii">
          2.6587e+07 2.65874e+07 2.65625e+07 2.65633e+07 2.65882e+07 2.65642e+07 2.65893e+07 2.65653e+07 2.65904e+07 2.65664e+07 2.65916e+07 2.65676e+07
          2.65928e+07 2.65689e+07 2.65941e+07 2.65701e+07 2.65953e+07 2.65714e+07 2.65966e+07 2.65726e+07 2.65979e+07 2.65739e+07 2.65992e+07 2.65753e+07
          2.66006e+07 2.65767e+07 2.66021e+07 2.65781e+07 2.66035e+07 2.65795e+07 2.66049e+07 2.6581e+07 2.66064e+07 2.65824e+07 2.66078e+07 2.65839e+07
          2.66093e+07 2.65853e+07 2.66107e+07 2.65868e+07 2.66121e+07 2.65882e+07 2.66135e+07 2.65896e+07 2.66148e+07 2.65909e+07 2.66157e+07 2.6592e+07
          2.6616e+07 2.65924e+07 2.6538e+07 2.6539e+07 2.65401e+07 2.65412e+07 2.65424e+07 2.65436e+07 2.65449e+07 2.65462e+07 2.65474e+07 2.65486e+07
          2.65499e+07 2.65512e+07 2.65527e+07 2.65541e+07 2.65556e+07 2.6557e+07 2.65585e+07 2.65599e+07 2.65614e+07 2.65628e+07 2.65643e+07 2.65658e+07
          2.65673e+07 2.65688e+07 2.65707e+07 2.65134e+07 2.65146e+07 2.65158e+07 2.65171e+07 2.65183e+07 2.65196e+07 2.65209e+07 2.65223e+07 2.65236e+07
          2.65247e+07 2.65259e+07 2.65272e+07 2.65287e+07 2.65302e+07 2.65316e+07 2.6533e+07 2.65345e+07 2.65359e+07 2.65374e+07 2.65389e+07 2.65404e+07
          2.6542e+07 2.65437e+07 2.65456e+07 2.65494e+07 2.64889e+07 2.64902e+07 2.64916e+07 2.64929e+07 2.64942e+07 2.64956e+07 2.64969e+07 2.64983e+07
          2.64997e+07 2.65009e+07 2.65021e+07 2.65033e+07 2.65048e+07 2.65062e+07 2.65076e+07 2.65091e+07 2.65105e+07 2.6512e+07 2.65134e+07 2.65149e+07
          2.65164e+07 2.6518e+07 2.65198e+07 2.6522e+07 2.65264e+07 2.64644e+07 2.64658e+07 2.64673e+07 2.64687e+07 2.64701e+07 2.64715e+07 2.64729e+07
          2.64744e+07 2.64758e+07 2.6477e+07 2.64782e+07 2.64794e+07 2.64808e+07 2.64823e+07 2.64837e+07 2.64851e+07 2.64865e+07 2.6488e+07 2.64894e+07
          2.64909e+07 2.64924e+07 2.6494e+07 2.64957e+07 2.64977e+07 2.6502e+07 2.64398e+07 2.64414e+07 2.6443e+07 2.64445e+07 2.6446e+07 2.64475e+07
          2.64489e+07 2.64504e+07 2.64519e+07 2.64531e+07 2.64543e+07 2.64555e+07 2.64569e+07 2.64583e+07 2.64597e+07 2.64611e+07 2.64626e+07 2.6464e+07
          2.64654e+07 2.64668e+07 2.64683e+07 2.64698e+07 2.64713e+07 2.64729e+07 2.64754e+07 2.64153e+07 2.64171e+07 2.64188e+07 2.64204e+07 2.64219e+07
          2.64234e+07 2.6425e+07 2.64264e+07 2.64279e+07 2.64292e+07 2.64304e+07 2.64316e+07 2.6433e+07 2.64344e+07 2.64358e+07 2.64372e+07 2.64386e+07
          2.644e+07 2.64414e+07 2.64428e+07 2.64441e+07 2.64455e+07 2.64468e+07 2.64479e+07 2.64484e+07 2.63908e+07 2.63928e+07 2.63946e+07 2.63963e+07
          2.63979e+07 2.63994e+07 2.6401e+07 2.64025e+07 2.6404e+07 2.64054e+07 2.64066e+07 2.64078e+07 2.64091e+07 2.64104e+07 2.64118e+07 2.64132e+07
          2.64146e+07 2.64159e+07 2.64173e+07 2.64187e+07 2.642e+07 2.64213e+07 2.64224e+07 2.64232e+07 2.64236e+07 2.63663e+07 2.63684e+07 2.63702e+07
          2.6372e+07 2.63736e+07 2.63752e+07 2.63768e+07 2.63784e+07 2.63799e+07 2.63813e+07 2.63826e+07 2.63838e+07 2.6385e+07 2.63864e+07 2.63877e+07
          2.6389e+07 2.63904e+07 2.63917e+07 2.6393e+07 2.63943e+07 2.63955e+07 2.63967e+07 2.63976e+07 2.63983e+07 2.63985e+07 2.63418e+07 2.63437e+07
          2.63456e+07 2.63474e+07 2.63492e+07 2.63509e+07 2.63525e+07 2.63541e+07 2.63557e+07 2.63571e+07 2.63583e+07 2.63595e+07 2.63609e+07 2.63622e+07
          2.63635e+07 2.63648e+07 2.63661e+07 2.63673e+07 2.63685e+07 2.63697e+07 2.63707e+07 2.63716e+07 2.63724e+07 2.63729e+07 2.6373e+07 2.63172e+07
          2.63192e+07 2.63211e+07 2.6323e+07 2.63248e+07 2.63265e+07 2.63282e+07 2.63299e+07 2.63315e+07 2.63329e+07 2.63341e+07 2.63354e+07 2.63367e+07
          2.6338e+07 2.63393e+07 2.63406e+07 2.63418e+07 2.63429e+07 2.6344e+07 2.63451e+07 2.6346e+07 2.63468e+07 2.63474e+07 2.63478e+07 2.63479e+07
          2.62927e+07 2.62947e+07 2.62967e+07 2.62986e+07 2.63005e+07 2.63023e+07 2.6304e+07 2.63057e+07 2.63074e+07 2.63087e+07 2.631e+07 2.63113e+07
          2.63126e+07 2.63139e+07 2.63151e+07 2.63164e+07 2.63175e+07 2.63186e+07 2.63197e+07 2.63206e+07 2.63214e+07 2.63221e+07 2.63227e+07 2.6323e+07
          2.63231e+07 2.62682e+07 2.62703e+07 2.62723e+07 2.62743e+07 2.62762e+07 2.6278e+07 2.62798e+07 2.62815e+07 2.62832e+07 2.62847e+07 2.6286e+07
          2.62873e+07 2.62886e+07 2.62898e+07 2.6291e+07 2.62922e+07 2.62933e+07 2.62944e+07 2.62953e+07 2.62962e+07 2.6297e+07 2.62976e+07 2.62981e+07
          2.62984e+07 2.62985e+07 2.62436e+07 2.62459e+07 2.6248e+07 2.625e+07 2.6252e+07 2.62539e+07 2.62556e+07 2.62574e+07 2.6259e+07 2.62606e+07
          2.6262e+07 2.62633e+07 2.62645e+07 2.62657e+07 2.62669e+07 2.62681e+07 2.62692e+07 2.62702e+07 2.62711e+07 2.6272e+07 2.62727e+07 2.62733e+07
          2.62737e+07 2.6274e+07 2.62741e+07 2.62191e+07 2.62215e+07 2.62238e+07 2.62259e+07 2.62279e+07 2.62298e+07 2.62316e+07 2.62333e+07 2.62349e+07
          2.62365e+07 2.62379e+07 2.62392e+07 2.62405e+07 2.62417e+07 2.62429e+07 2.6244e+07 2.62451e+07 2.62461e+07 2.6247e+07 2.62478e+07 2.62485e+07
          2.62491e+07 2.62495e+07 2.62498e+07 2.62499e+07 2.61946e+07 2.61974e+07 2.61997e+07 2.62019e+07 2.62039e+07 2.62058e+07 2.62076e+07 2.62093e+07
          2.62109e+07 2.62124e+07 2.62139e+07 2.62152e+07 2.62165e+07 2.62177e+07 2.62189e+07 2.622e+07 2.62211e+07 2.62221e+07 2.6223e+07 2.62238e+07
          2.62245e+07 2.62251e+07 2.62255e+07 2.62257e+07 2.62258e+07
        </DataArray>
        <DataArray type="Float32" Name="pressure_g" NumberOfComponents="1" format="ascii">
          2.6597e+07 2.65974e+07 2.65725e+07 2.65733e+07 2.65982e+07 2.65742e+07 2.65993e+07 2.65753e+07 2.66004e+07 2.65764e+07 2.66016e+07 2.65776e+07
          2.66028e+07 2.65789e+07 2.66041e+07 2.65801e+07 2.66053e+07 2.65814e+07 2.66066e+07 2.65826e+07 2.66079e+07 2.65839e+07 2.66092e+07 2.65853e+07
          2.66106e+07 2.65867e+07 2.66121e+07 2.65881e+07 2.66135e+07 2.65895e+07 2.66149e+07 2.6591e+07 2.66164e+07 2.65924e+07 2.66178e+07 2.65939e+07
          2.66193e+07 2.65953e+07 2.66207e+07 2.65968e+07 2.66221e+07 2.65982e+07 2.66235e+07 2.65996e+07 2.66248e+07 2.66009e+07 2.66257e+07 2.6602e+07
          2.6626e+07 2.66024e+07 2.6548e+07 2.6549e+07 2.65501e+07 2.65512e+07 2.65524e+07 2.65536e+07 2.65549e+07 2.65562e+07 2.65574e+07 2.65586e+07
          2.65599e+07 2.65612e+07 2.65627e+07 2.65641e+07 2.65656e+07 2.6567e+07 2.65685e+07 2.65699e+07 2.65714e+07 2.65728e+07 2.65743e+07 2.65758e+07
          2.65773e+07 2.65788e+07 2.6581e+07 2.65234e+07 2.65246e+07 2.65258e+07 2.65271e+07 2.65283e+07 2.65296e+07 2.65309e+07 2.65323e+07 2.65336e+07
          2.65347e+07 2.65359e+07 2.65372e+07 2.65387e+07 2.65402e+07 2.65416e+07 2.6543e+07 2.65445e+07 2.65459e+07 2.65474e+07 2.65489e+07 2.65504e+07
          2.6552e+07 2.65537e+07 2.65556e+07 2.65601e+07 2.64989e+07 2.65002e+07 2.65016e+07 2.65029e+07 2.65042e+07 2.65056e+07 2.65069e+07 2.65083e+07
          2.65097e+07 2.65109e+07 2.65121e+07 2.65133e+07 2.65148e+07 2.65162e+07 2.65176e+07 2.65191e+07 2.65205e+07 2.6522e+07 2.65234e+07 2.65249e+07
          2.65264e+07 2.6528e+07 2.65298e+07 2.6532e+07 2.65371e+07 2.64744e+07 2.64758e+07 2.64773e+07 2.64787e+07 2.64801e+07 2.64815e+07 2.64829e+07
          2.64844e+07 2.64858e+07 2.6487e+07 2.64882e+07 2.64894e+07 2.64908e+07 2.64923e+07 2.64937e+07 2.64951e+07 2.64965e+07 2.6498e+07 2.64994e+07
          2.65009e+07 2.65024e+07 2.6504e+07 2.65057e+07 2.65077e+07 2.65128e+07 2.64498e+07 2.64514e+07 2.6453e+07 2.64545e+07 2.6456e+07 2.64575e+07
          2.64589e+07 2.64604e+07 2.64619e+07 2.64631e+07 2.64643e+07 2.64655e+07 2.64669e+07 2.64683e+07 2.64697e+07 2.64711e+07 2.64726e+07 2.6474e+07
          2.64754e+07 2.64768e+07 2.64783e+07 2.64798e+07 2.64813e+07 2.64829e+07 2.64858e+07 2.64253e+07 2.64271e+07 2.64288e+07 2.64304e+07 2.64319e+07
          2.64334e+07 2.6435e+07 2.64364e+07 2.64379e+07 2.64392e+07 2.64404e+07 2.64416e+07 2.6443e+07 2.64444e+07 2.64458e+07 2.64472e+07 2.64486e+07
          2.645e+07 2.64514e+07 2.64528e+07 2.64541e+07 2.64555e+07 2.64568e+07 2.64579e+07 2.64584e+07 2.64008e+07 2.64028e+07 2.64046e+07 2.64063e+07
          2.64079e+07 2.64094e+07 2.6411e+07 2.64125e+07 2.6414e+07 2.64154e+07 2.64166e+07 2.64178e+07 2.64191e+07 2.64204e+07 2.64218e+07 2.64232e+07
          2.64246e+07 2.64259e+07 2.64273e+07 2.64287e+07 2.643e+07 2.64313e+07 2.64324e+07 2.64332e+07 2.64336e+07 2.63763e+07 2.63784e+07 2.63802e+07
          2.6382e+07 2.63836e+07 2.63852e+07 2.63868e+07 2.63884e+07 2.63899e+07 2.63913e+07 2.63926e+07 2.63938e+07 2.6395e+07 2.63964e+07 2.63977e+07
          2.6399e+07 2.64004e+07 2.64017e+07 2.6403e+07 2.64043e+07 2.64055e+07 2.64067e+07 2.64076e+07 2.64083e+07 2.64085e+07 2.63518e+07 2.63537e+07
          2.63556e+07 2.63574e+07 2.63592e+07 2.63609e+07 2.63625e+07 2.63641e+07 2.63657e+07 2.63671e+07 2.63683e+07 2.63695e+07 2.63709e+07 2.63722e+07
          2.63735e+07 2.63748e+07 2.63761e+07 2.63773e+07 2.63785e+07 2.63797e+07 2.63807e+07 2.63816e+07 2.63824e+07 2.63829e+07 2.6383e+07 2.63272e+07
          2.63292e+07 2.63311e+07 2.6333e+07 2.63348e+07 2.63365e+07 2.63382e+07 2.63399e+07 2.63415e+07 2.63429e+07 2.63441e+07 2.63454e+07 2.63467e+07
          2.6348e+07 2.63493e+07 2.63506e+07 2.63518e+07 2.63529e+07 2.6354e+07 2.63551e+07 2.6356e+07 2.63568e+07 2.63574e+07 2.63578e+07 2.63579e+07
          2.63027e+07 2.63047e+07 2.63067e+07 2.63086e+07 2.63105e+07 2.63123e+07 2.6314e+07 2.63157e+07 2.63174e+07 2.63187e+07 2.632e+07 2.63213e+07
          2.63226e+07 2.63239e+07 2.63251e+07 2.63264e+07 2.63275e+07 2.63286e+07 2.63297e+07 2.63306e+07 2.63314e+07 2.63321e+07 2.63327e+07 2.6333e+07
          2.63331e+07 2.62782e+07 2.62803e+07 2.62823e+07 2.62843e+07 2.62862e+07 2.6288e+07 2.62898e+07 2.62915e+07 2.62932e+07 2.62947e+07 2.6296e+07
          2.62973e+07 2.62986e+07 2.62998e+07 2.6301e+07 2.63022e+07 2.63033e+07 2.63044e+07 2.63053e+07 2.63062e+07 2.6307e+07 2.63076e+07 2.63081e+07
          2.63084e+07 2.63085e+07 2.62536e+07 2.62559e+07 2.6258e+07 2.626e+07 2.6262e+07 2.62639e+07 2.62656e+07 2.62674e+07 2.6269e+07 2.62706e+07
          2.6272e+07 2.62733e+07 2.62745e+07 2.62757e+07 2.62769e+07 2.62781e+07 2.62792e+07 2.62802e+07 2.62811e+07 2.6282e+07 2.62827e+07 2.62833e+07
          2.62837e+07 2.6284e+07 2.62841e+07 2.62291e+07 2.62315e+07 2.62338e+07 2.62359e+07 2.62379e+07 2.62398e+07 2.62416e+07 2.62433e+07 2.62449e+07
          2.62465e+07 2.62479e+07 2.62492e+07 2.62505e+07 2.62517e+07 2.62529e+07 2.6254e+07 2.62551e+07 2.62561e+07 2.6257e+07 2.62578e+07 2.62585e+07
          2.62591e+07 2.62595e+07 2.62598e+07 2.62599e+07 2.62046e+07 2.62074e+07 2.62097e+07 2.62119e+07 2.62139e+07 2.62158e+07 2.62176e+07 2.62193e+07
          2.62209e+07 2.62224e+07 2.62239e+07 2.62252e+07 2.62265e+07 2.62277e+07 2.62289e+07 2.623e+07 2.62311e+07 2.62321e+07 2.6233e+07 2.62338e+07
          2.62345e+07 2.62351e+07 2.62355e+07 2.62357e+07 2.62358e+07
        </DataArray>
        <DataArray type="Float32" Name="density_l" NumberOfComponents="1" format="ascii">
          976.617 976.617 976.654 976.654 976.617 976.655 976.617 976.655 976.618 976.656 976.619 976.656
          976.619 976.657 976.62 976.657 976.62 976.658 976.621 976.658 976.621 976.659 976.622 976.66
          976.623 976.66 976.623 976.661 976.624 976.661 976.625 976.662 976.625 976.662 976.626 976.663
          976.626 976.664 976.627 976.664 976.628 976.665 976.628 976.666 976.629 976.666 976.629 976.667
          976.629 976.668 976.692 976.692 976.693 976.693 976.694 976.694 976.695 976.696 976.696 976.696
          976.697 976.698 976.698 976.699 976.699 976.7 976.701 976.701 976.702 976.702 976.703 976.704
          976.704 976.706 976.707 976.73 976.73 976.731 976.731 976.732 976.732 976.733 976.731 976.505
          965.692 965.706 966 976.736 976.737 976.737 976.738 976.739 976.739 976.74 976.74 976.741
          976.742 976.742 976.743 976.746 976.768 976.768 976.769 976.769 976.77 976.771 976.771 976.769
          976.535 965.659 965.664 965.941 976.774 976.775 976.776 976.776 976.777 976.777 976.778 976.778
          976.779 976.78 976.78 976.781 976.785 976.806 976.806 976.807 976.807 976.808 976.809 976.809
          976.807 976.566 965.648 965.652 965.925 976.812 976.813 976.814 976.814 976.815 976.815 976.816
          976.816 976.817 976.818 976.818 976.819 976.823 976.843 976.844 976.844 976.845 976.846 976.846
          976.847 976.844 976.597 965.637 965.641 965.91 976.85 976.851 976.851 976.852 976.852 976.853
          976.854 976.854 976.855 976.855 976.856 976.856 976.859 976.881 976.881 976.882 976.883 976.883
          976.884 976.885 976.882 976.626 965.626 965.63 965.892 976.888 976.889 976.889 976.89 976.89
          976.891 976.891 976.892 976.892 976.893 976.893 976.893 976.896 976.918 976.919 976.92 976.92
          976.921 976.922 976.922 976.919 976.647 965.615 965.618 965.866 976.926 976.926 976.927 976.927
          976.928 976.929 976.929 976.93 976.93 976.931 976.931 976.931 976.933 976.956 976.957 976.957
          976.958 976.959 976.96 976.96 976.961 976.933 965.603 965.604 965.63 976.964 976.964 976.965
          976.965 976.966 976.966 976.967 976.967 976.968 976.968 976.969 976.969 976.97 976.993 976.994
          976.995 976.996 976.996 976.997 976.998 976.998 976.971 965.592 965.593 965.62 977.001 977.002
          977.002 977.003 977.003 977.004 977.004 977.005 977.005 977.006 977.006 977.006 977.007 977.031
          977.032 977.033 977.033 977.034 977.035 977.036 977.036 977.009 965.581 965.581 965.609 977.039
          977.039 977.04 977.041 977.041 977.041 977.042 977.042 977.043 977.043 977.043 977.043 977.045
          977.069 977.069 977.07 977.071 977.072 977.073 977.073 977.074 977.046 965.57 965.57 965.597
          977.077 977.077 977.078 977.078 977.079 977.079 977.08 977.08 977.08 977.081 977.081 977.081
          977.082 977.106 977.107 977.108 977.109 977.109 977.11 977.111 977.112 977.081 965.558 965.559
          965.585 977.115 977.115 977.115 977.116 977.116 977.117 977.117 977.118 977.118 977.118 977.118
          977.118 977.12 977.144 977.145 977.146 977.146 977.147 977.148 977.149 977.149 977.15 977.145
          977.146 977.148 977.152 977.153 977.153 977.154 977.154 977.155 977.155 977.155 977.156 977.156
          977.156 977.156 977.157 977.181 977.182 977.183 977.184 977.185 977.186 977.186 977.187 977.188
          977.188 977.189 977.19 977.19 977.191 977.191 977.191 977.192 977.192 977.193 977.193 977.193
          977.194 977.194 977.194 977.195 977.219 977.22 977.221 977.222 977.223 977.224 977.225 977.225
          977.226 977.227 977.228 977.228 977.229 977.229 977.23 977.23 977.231 977.231 977.232 977.232
          977.232 977.232 977.233 977.233 977.233
        </DataArray>
        <DataArray type="Float32" Name="density_g" NumberOfComponents="1" format="ascii">
          246.185 246.189 246.009 246.016 246.197 246.025 246.207 246.035 246.217 246.046 246.228 246.057
          246.24 246.068 246.251 246.08 246.263 246.091 246.274 246.103 246.286 246.115 246.299 246.127
          246.312 246.14 246.325 246.153 246.338 246.166 246.351 246.18 246.365 246.193 246.378 246.206
          246.392 246.22 246.405 246.233 246.418 246.246 246.431 246.26 246.442 246.272 246.451 246.282
          246.454 246.286 245.833 245.842 245.852 245.863 245.874 245.885 245.897 245.909 245.92 245.931
          245.943 245.955 245.969 245.982 245.995 246.008 246.022 246.035 246.049 246.062 246.076 246.09
          246.104 246.118 246.139 245.656 245.667 245.678 245.69 245.701 245.713 245.726 245.735 245.512
          235.286 235.308 235.574 245.797 245.811 245.824 245.837 245.851 245.864 245.877 245.891 245.905
          245.92 245.935 245.953 245.996 245.48 245.492 245.504 245.516 245.529 245.541 245.554 245.563
          245.333 235.056 235.069 235.321 245.626 245.639 245.653 245.666 245.679 245.692 245.706 245.72
          245.734 245.749 245.765 245.785 245.834 245.303 245.316 245.33 245.343 245.356 245.369 245.382
          245.392 245.155 234.844 234.858 235.104 245.455 245.468 245.481 245.494 245.508 245.521 245.534
          245.548 245.561 245.576 245.592 245.61 245.659 245.126 245.141 245.155 245.169 245.183 245.197
          245.21 245.22 244.977 234.632 234.646 234.889 245.284 245.297 245.31 245.323 245.336 245.349
          245.362 245.375 245.389 245.402 245.416 245.431 245.46 244.95 244.966 244.981 244.996 245.011
          245.025 245.038 245.049 244.796 234.42 234.434 234.671 245.113 245.126 245.138 245.151 245.164
          245.177 245.19 245.203 245.215 245.228 245.24 245.25 245.256 244.773 244.791 244.808 244.823
          244.838 244.852 244.867 244.876 244.608 234.209 234.223 234.447 244.942 244.954 244.967 244.979
          244.992 245.005 245.018 245.03 245.042 245.054 245.064 245.072 245.077 244.596 244.615 244.633
          244.649 244.664 244.679 244.693 244.708 244.692 233.995 234.007 234.039 244.769 244.781 244.794
          244.806 244.819 244.831 244.843 244.855 244.866 244.876 244.885 244.891 244.895 244.419 244.437
          244.455 244.472 244.488 244.503 244.518 244.533 244.519 233.78 233.792 233.825 244.596 244.608
          244.62 244.632 244.644 244.655 244.666 244.677 244.686 244.695 244.702 244.706 244.709 244.242
          244.26 244.278 244.295 244.312 244.328 244.344 244.359 244.345 233.566 233.577 233.611 244.422
          244.434 244.446 244.457 244.469 244.479 244.49 244.499 244.508 244.515 244.521 244.524 244.527
          244.065 244.083 244.102 244.119 244.137 244.153 244.169 244.185 244.17 233.352 233.363 233.397
          244.249 244.261 244.272 244.283 244.294 244.304 244.314 244.323 244.33 244.337 244.342 244.345
          244.347 243.888 243.907 243.926 243.944 243.962 243.979 243.995 244.011 243.995 233.139 233.151
          233.183 244.076 244.087 244.099 244.11 244.12 244.13 244.139 244.147 244.154 244.16 244.164
          244.167 244.169 243.71 243.731 243.751 243.769 243.788 243.805 243.821 243.837 243.852 243.861
          243.875 243.888 243.903 243.915 243.926 243.936 243.946 243.956 243.964 243.972 243.979 243.984
          243.988 243.991 243.993 243.533 243.555 243.576 243.596 243.614 243.631 243.648 243.664 243.679
          243.693 243.707 243.719 243.731 243.742 243.753 243.763 243.773 243.782 243.791 243.798 243.805
          243.81 243.814 243.816 243.818 243.356 243.382 243.403 243.423 243.442 243.459 243.476 243.492
          243.507 243.521 243.535 243.547 243.559 243.57 243.581 243.592 243.602 243.611 243.619 243.627
          243.633 243.638 243.642 243.645 243.645
        </DataArray>
        <DataArray type="Float32" Name="saturation_l" NumberOfComponents="1" format="ascii">
          1 1 1 1 1 1 1 1 1 1 1 1
          1 1 1 1 1 1 1 1 1 1 1 1
          1 1 1 1 1 1 1 1 1 1 1 1
          1 1 1 1 1 1 1 1 1 1 1 1
          1 1 1 1 1 1 1 1 1 1 1 1
          1 1 1 1 1 1 1 1 1 1 1 1
          1 0.999882 0.946896 1 1 1 1 1 1 1 1 1
          1 1 1 1 1 1 1 1 1 1 1 1
          1 1 0.998484 0.900039 1 1 1 1 1 1 1 1
          1 1 1 1 1 1 1 1 1 1 1 1
          1 1 1 0.998095 0.896338 1 1 1 1 1 1 1
          1 1 1 1 1 1 1 1 1 1 1 1
          1 1 1 1 0.998195 0.89592 1 1 1 1 1 1
          1 1 1 1 1 1 1 1 1 1 1 1
          1 1 1 1 1 0.999805 0.939454 1 1 1 1 1
          1 1 1 1 1 1 1 1 1 1 1 1
          1 1 1 1 1 1 1 0.998491 1 1 1 1
          1 1 1 1 1 1 1 1 1 1 1 1
          1 1 1 1 1 1 1 1 1 1 1 1
          1 1 1 1 1 1 1 1 1 1 1 1
          1 1 1 1 1 1 1 1 1 1 1 1
          1 1 1 1 1 1 1 1 1 1 1 1
          1 1 1 1 1 1 1 1 1 1 1 1
          1 1 1 1 1 1 1 1 1 1 1 1
          1 1 1 1 1 1 1 1 1 1 1 1
          1 1 1 1 1 1 1 1 1 1 1 1
          1 1 1 1 1 1 1 1 1 1 1 1
          1 1 1 1 1 1 1 1 1 1 1 1
          1 1 1 1 1 1 1 1 1 1 1 1
          1 1 1 1 1 1 1 1 1 1 1 1
          1 1 1 1 1 1 1 1 1 1 1 1
          1 1 1 1 1 1 1 1 1 1 1 1
          1 1 1 1 1 1 1 1 1 1 1 1
          1 1 1 1 1 1 1 1 1 1 1 1
          1 1 1 1 1 1 1 1 1 1 1 1
          1 1 1 1 1
        </DataArray>
        <DataArray type="Float32" Name="saturation_g" NumberOfComponents="1" format="ascii">
          0 0 0 0 0 0 0 0 0 0 0 0
          0 0 0 0 0 0 0 0 0 0 0 0
          0 0 0 0 0 0 0 0 0 0 0 0
          0 0 0 0 0 0 0 0 0 0 0 0
          0 0 0 0 0 0 0 0 0 0 0 0
          0 0 0 0 0 0 0 0 0 0 0 6.28736e-38
          5.78546e-13 0.000118415 0.0531041 0 0 0 0 0 0 0 0 0
          0 0 0 0 0 0 0 0 0 0 0 0
          1.33738e-27 1.54441e-09 0.00151553 0.0999606 0 0 0 0 0 0 0 0
          0 0 0 0 0 0 0 0 0 0 0 0
          0 1.47499e-26 3.38113e-09 0.00190459 0.103662 0 0 0 0 0 0 0
          0 0 0 0 0 0 0 0 0 0 0 0
          0 0 7.26258e-27 2.69999e-09 0.00180491 0.10408 0 0 0 0 0 0
          0 0 0 0 0 0 0 0 0 0 0 0
          0 0 0 6.50971e-36 2.70174e-12 0.000195167 0.0605456 0 0 0 0 0
          0 0 0 0 0 0 0 0 0 0 0 0
          0 0 0 0 0 5.32656e-29 5.94476e-10 0.00150867 0 0 0 0
          0 0 0 0 0 0 0 0 0 0 0 0
          0 0 0 0 0 0 0 2.13028e-25 1.45976e-08 0 0 0
          0 0 0 0 0 0 0 0 0 0 0 0
          0 0 0 0 0 0 0 0 0 2.33022e-24 0 0
          0 0 0 0 0 0 0 0 0 0 0 0
          0 0 0 0 0 0 0 0 0 0 0 0
          0 0 0 0 0 0 0 0 0 0 0 0
          0 0 0 0 0 0 0 0 0 0 0 0
          0 0 0 0 0 0 0 0 0 0 0 0
          0 0 0 0 0 0 0 0 0 0 0 0
          0 0 0 0 0 0 0 0 0 0 0 0
          0 0 0 0 0 0 0 0 0 0 0 0
          0 0 0 0 0 0 0 0 0 0 0 0
          0 0 0 0 0 0 0 0 0 0 0 0
          0 0 0 0 0 0 0 0 0 0 0 0
          0 0 0 0 0 0 0 0 0 0 0 0
          0 0 0 0 0 0 0 0 0 0 0 0
          0 0 0 0 0 0 0 0 0 0 0 0
          0 0 0 0 0
        </DataArray>
        <DataArray type="Float32" Name="relativePerm_l" NumberOfComponents="1" format="ascii">
          1 1 1 1 1 1 1 1 1 1 1 1
          1 1 1 1 1 1 1 1 1 1 1 1
          1 1 1 1 1 1 1 1 1 1 1 1
          1 1 1 1 1 1 1 1 1 1 1 1
          1 1 1 1 1 1 1 1 1 1 1 1
          1 1 1 1 1 1 1 1 1 1 1 1
          1 0.999408 0.759767 1 1 1 1 1 1 1 1 1
          1 1 1 1 1 1 1 1 1 1 1 1
          1 1 0.992444 0.586314 1 1 1 1 1 1 1 1
          1 1 1 1 1 1 1 1 1 1 1 1
          1 1 1 0.990511 0.574012 1 1 1 1 1 1 1
          1 1 1 1 1 1 1 1 1 1 1 1
          1 1 1 1 0.991006 0.572634 1 1 1 1 1 1
          1 1 1 1 1 1 1 1 1 1 1 1
          1 1 1 1 1 0.999025 0.729938 1 1 1 1 1
          1 1 1 1 1 1 1 1 1 1 1 1
          1 1 1 1 1 1 1 0.992478 1 1 1 1
          1 1 1 1 1 1 1 1 1 1 1 1
          1 1 1 1 1 1 1 1 1 1 1 1
          1 1 1 1 1 1 1 1 1 1 1 1
          1 1 1 1 1 1 1 1 1 1 1 1
          1 1 1 1 1 1 1 1 1 1 1 1
          1 1 1 1 1 1 1 1 1 1 1 1
          1 1 1 1 1 1 1 1 1 1 1 1
          1 1 1 1 1 1 1 1 1 1 1 1
          1 1 1 1 1 1 1 1 1 1 1 1
          1 1 1 1 1 1 1 1 1 1 1 1
          1 1 1 1 1 1 1 1 1 1 1 1
          1 1 1 1 1 1 1 1 1 1 1 1
          1 1 1 1 1 1 1 1 1 1 1 1
          1 1 1 1 1 1 1 1 1 1 1 1
          1 1 1 1 1 1 1 1 1 1 1 1
          1 1 1 1 1 1 1 1 1 1 1 1
          1 1 1 1 1 1 1 1 1 1 1 1
          1 1 1 1 1 1 1 1 1 1 1 1
          1 1 1 1 1
        </DataArray>
        <DataArray type="Float32" Name="relativePerm_g" NumberOfComponents="1" format="ascii">
          0 0 0 0 0 0 0 0 0 0 0 0
          0 0 0 0 0 0 0 0 0 0 0 0
          0 0 0 0 0 0 0 0 0 0 0 0
          0 0 0 0 0 0 0 0 0 0 0 0
          0 0 0 0 0 0 0 0 0 0 0 0
          0 0 0 0 0 0 0 0 0 0 0 0
          7.5684e-37 6.48551e-12 0.00056557 0 0 0 0 0 0 0 0 0
          0 0 0 0 0 0 0 0 0 0 0 0
          0 1.43895e-26 1.35844e-08 0.00365788 0 0 0 0 0 0 0 0
          0 0 0 0 0 0 0 0 0 0 0 0
          0 0 1.50989e-25 2.69554e-08 0.00406935 0 0 0 0 0 0 0
          0 0 0 0 0 0 0 0 0 0 0 0
          0 0 0 7.68859e-26 2.29424e-08 0.00411766 0 0 0 0 0 0
          0 0 0 0 0 0 0 0 0 0 0 0
          0 0 0 0 7.70439e-35 2.90353e-11 0.000834169 0 0 0 0 0
          0 0 0 0 0 0 0 0 0 0 0 0
          0 0 0 0 0 0 8.20658e-28 1.34008e-08 0 0 0 0
          0 0 0 0 0 0 0 0 0 0 0 0
          0 0 0 0 0 0 0 0 1.21508e-23 0 0 0
          0 0 0 0 0 0 0 0 0 0 0 0
          0 0 0 0 0 0 0 0 0 0 0 0
          0 0 0 0 0 0 0 0 0 0 0 0
          0 0 0 0 0 0 0 0 0 0 0 0
          0 0 0 0 0 0 0 0 0 0 0 0
          0 0 0 0 0 0 0 0 0 0 0 0
          0 0 0 0 0 0 0 0 0 0 0 0
          0 0 0 0 0 0 0 0 0 0 0 0
          0 0 0 0 0 0 0 0 0 0 0 0
          0 0 0 0 0 0 0 0 0 0 0 0
          0 0 0 0 0 0 0 0 0 0 0 0
          0 0 0 0 0 0 0 0 0 0 0 0
          0 0 0 0 0 0 0 0 0 0 0 0
          0 0 0 0 0 0 0 0 0 0 0 0
          0 0 0 0 0 0 0 0 0 0 0 0
          0 0 0 0 0 0 0 0 0 0 0 0
          0 0 0 0 0
        </DataArray>
        <DataArray type="Float32" Name="porosity" NumberOfComponents="1" format="ascii">
          0.3 0.3 0.3 0.3 0.3 0.3 0.3 0.3 0.3 0.3 0.3 0.3
          0.3 0.3 0.3 0.3 0.3 0.3 0.3 0.3 0.3 0.3 0.3 0.3
          0.3 0.3 0.3 0.3 0.3 0.3 0.3 0.3 0.3 0.3 0.3 0.3
          0.3 0.3 0.3 0.3 0.3 0.3 0.3 0.3 0.3 0.3 0.3 0.3
          0.3 0.3 0.3 0.3 0.3 0.3 0.3 0.3 0.3 0.3 0.3 0.3
          0.3 0.3 0.3 0.3 0.3 0.3 0.3 0.3 0.3 0.3 0.3 0.3
          0.3 0.3 0.3 0.3 0.3 0.3 0.3 0.3 0.3 0.3 0.3 0.3
          0.3 0.3 0.3 0.3 0.3 0.3 0.3 0.3 0.3 0.3 0.3 0.3
          0.3 0.3 0.3 0.3 0.3 0.3 0.3 0.3 0.3 0.3 0.3 0.3
          0.3 0.3 0.3 0.3 0.3 0.3 0.3 0.3 0.3 0.3 0.3 0.3
          0.3 0.3 0.3 0.3 0.3 0.3 0.3 0.3 0.3 0.3 0.3 0.3
          0.3 0.3 0.3 0.3 0.3 0.3 0.3 0.3 0.3 0.3 0.3 0.3
          0.3 0.3 0.3 0.3 0.3 0.3 0.3 0.3 0.3 0.3 0.3 0.3
          0.3 0.3 0.3 0.3 0.3 0.3 0.3 0.3 0.3 0.3 0.3 0.3
          0.3 0.3 0.3 0.3 0.3 0.3 0.3 0.3 0.3 0.3 0.3 0.3
          0.3 0.3 0.3 0.3 0.3 0.3 0.3 0.3 0.3 0.3 0.3 0.3
          0.3 0.3 0.3 0.3 0.3 0.3 0.3 0.3 0.3 0.3 0.3 0.3
          0.3 0.3 0.3 0.3 0.3 0.3 0.3 0.3 0.3 0.3 0.3 0.3
          0.3 0.3 0.3 0.3 0.3 0.3 0.3 0.3 0.3 0.3 0.3 0.3
          0.3 0.3 0.3 0.3 0.3 0.3 0.3 0.3 0.3 0.3 0.3 0.3
          0.3 0.3 0.3 0.3 0.3 0.3 0.3 0.3 0.3 0.3 0.3 0.3
          0.3 0.3 0.3 0.3 0.3 0.3 0.3 0.3 0.3 0.3 0.3 0.3
          0.3 0.3 0.3 0.3 0.3 0.3 0.3 0.3 0.3 0.3 0.3 0.3
          0.3 0.3 0.3 0.3 0.3 0.3 0.3 0.3 0.3 0.3 0.3 0.3
          0.3 0.3 0.3 0.3 0.3 0.3 0.3 0.3 0.3 0.3 0.3 0.3
          0.3 0.3 0.3 0.3 0.3 0.3 0.3 0.3 0.3 0.3 0.3 0.3
          0.3 0.3 0.3 0.3 0.3 0.3 0.3 0.3 0.3 0.3 0.3 0.3
          0.3 0.3 0.3 0.3 0.3 0.3 0.3 0.3 0.3 0.3 0.3 0.3
          0.3 0.3 0.3 0.3 0.3 0.3 0.3 0.3 0.3 0.3 0.3 0.3
          0.3 0.3 0.3 0.3 0.3 0.3 0.3 0.3 0.3 0.3 0.3 0.3
          0.3 0.3 0.3 0.3 0.3 0.3 0.3 0.3 0.3 0.3 0.3 0.3
          0.3 0.3 0.3 0.3 0.3 0.3 0.3 0.3 0.3 0.3 0.3 0.3
          0.3 0.3 0.3 0.3 0.3 0.3 0.3 0.3 0.3 0.3 0.3 0.3
          0.3 0.3 0.3 0.3 0.3 0.3 0.3 0.3 0.3 0.3 0.3 0.3
          0.3 0.3 0.3 0.3 0.3 0.3 0.3 0.3 0.3 0.3 0.3 0.3
          0.3 0.3 0.3 0.3 0.3
        </DataArray>
        <DataArray type="Float32" Name="temperature" NumberOfComponents="1" format="ascii">
          364 364 363.925 363.925 364 363.925 364 363.925 364 363.925 364 363.925
          364 363.925 364 363.925 364 363.926 364 363.926 364 363.926 364 363.926
          364 363.926 364 363.926 364 363.926 364 363.926 364 363.926 364 363.926
          364 363.926 364 363.926 364 363.926 364 363.926 364 363.926 364 363.926
          364 363.925 363.85 363.851 363.85 363.85 363.85 363.85 363.85 363.85 363.851 363.851
          363.851 363.851 363.851 363.851 363.851 363.851 363.851 363.851 363.851 363.852 363.852 363.852
          363.851 363.851 363.85 363.775 363.776 363.776 363.775 363.775 363.775 363.776 363.78 364.128
          379.97 379.952 379.541 363.776 363.776 363.776 363.776 363.776 363.776 363.776 363.777 363.777
          363.777 363.777 363.777 363.775 363.7 363.701 363.701 363.701 363.701 363.701 363.701 363.705
          364.066 380.001 379.995 379.607 363.701 363.701 363.701 363.701 363.701 363.701 363.702 363.702
          363.702 363.702 363.702 363.702 363.7 363.625 363.626 363.626 363.626 363.626 363.626 363.626
          363.631 364.002 380.001 379.996 379.614 363.626 363.626 363.626 363.626 363.626 363.626 363.627
          363.627 363.627 363.627 363.627 363.628 363.625 363.55 363.551 363.551 363.551 363.551 363.551
          363.551 363.556 363.937 380.001 379.996 379.62 363.551 363.551 363.551 363.551 363.551 363.552
          363.552 363.552 363.552 363.552 363.553 363.553 363.55 363.475 363.476 363.476 363.476 363.476
          363.476 363.476 363.481 363.877 380.001 379.996 379.63 363.476 363.476 363.476 363.476 363.476
          363.477 363.477 363.477 363.477 363.477 363.478 363.479 363.475 363.4 363.401 363.401 363.401
          363.401 363.401 363.401 363.407 363.828 380.001 379.997 379.65 363.401 363.401 363.401 363.401
          363.401 363.402 363.402 363.402 363.402 363.402 363.402 363.403 363.4 363.325 363.325 363.325
          363.325 363.326 363.326 363.326 363.326 363.37 380.001 380.001 379.966 363.326 363.326 363.326
          363.326 363.327 363.327 363.327 363.327 363.327 363.327 363.327 363.327 363.325 363.25 363.25
          363.25 363.25 363.251 363.251 363.251 363.251 363.294 380.001 380.001 379.964 363.251 363.251
          363.251 363.251 363.251 363.252 363.252 363.252 363.252 363.252 363.252 363.252 363.25 363.175
          363.175 363.175 363.175 363.176 363.176 363.176 363.176 363.219 380.001 380.001 379.964 363.176
          363.176 363.176 363.176 363.177 363.177 363.177 363.177 363.177 363.177 363.177 363.177 363.175
          363.1 363.1 363.1 363.1 363.101 363.101 363.101 363.101 363.146 380.001 380.001 379.964
          363.101 363.101 363.101 363.101 363.102 363.102 363.102 363.102 363.102 363.102 363.102 363.102
          363.1 363.025 363.025 363.025 363.025 363.026 363.026 363.026 363.026 363.074 380.001 380.001
          379.966 363.026 363.026 363.026 363.026 363.027 363.027 363.027 363.027 363.027 363.027 363.027