<?xml version="1.0"?>
<VTKFile type="UnstructuredGrid" version="0.1" byte_order="LittleEndian">
  <UnstructuredGrid>
    <Piece NumberOfCells="384" NumberOfPoints="425">
      <PointData Scalars="pressure_l">
        <DataArray type="Float32" Name="pressure_l" NumberOfComponents="1" format="ascii">
          2.65815e+07 2.65839e+07 2.65596e+07 2.65601e+07 2.65851e+07 2.65612e+07 2.65863e+07 2.65624e+07 2.65876e+07 2.65636e+07 2.65888e+07 2.65649e+07
          2.65901e+07 2.65662e+07 2.65914e+07 2.65674e+07 2.65926e+07 2.65687e+07 2.65939e+07 2.657e+07 2.65952e+07 2.65713e+07 2.65966e+07 2.65726e+07
          2.6598e+07 2.6574e+07 2.65994e+07 2.65754e+07 2.66008e+07 2.65769e+07 2.66023e+07 2.65783e+07 2.66037e+07 2.65798e+07 2.66052e+07 2.65812e+07
          2.66066e+07 2.65827e+07 2.66081e+07 2.65841e+07 2.66095e+07 2.65856e+07 2.66109e+07 2.6587e+07 2.66121e+07 2.65883e+07 2.6613e+07 2.65894e+07
          2.66134e+07 2.65898e+07 2.65353e+07 2.65361e+07 2.65372e+07 2.65384e+07 2.65396e+07 2.65409e+07 2.65422e+07 2.65435e+07 2.65448e+07 2.6546e+07
          2.65472e+07 2.65486e+07 2.655e+07 2.65515e+07 2.65529e+07 2.65544e+07 2.65558e+07 2.65573e+07 2.65587e+07 2.65602e+07 2.65617e+07 2.65632e+07
          2.65647e+07 2.65662e+07 2.65681e+07 2.65108e+07 2.65119e+07 2.65131e+07 2.65143e+07 2.65156e+07 2.65169e+07 2.65182e+07 2.65196e+07 2.65209e+07
          2.6522e+07 2.65233e+07 2.65245e+07 2.65261e+07 2.65275e+07 2.6529e+07 2.65304e+07 2.65319e+07 2.65333e+07 2.65348e+07 2.65363e+07 2.65378e+07
          2.65394e+07 2.6541e+07 2.6543e+07 2.65468e+07 2.64864e+07 2.64876e+07 2.64889e+07 2.64902e+07 2.64916e+07 2.64929e+07 2.64943e+07 2.64956e+07
          2.6497e+07 2.64982e+07 2.64994e+07 2.65007e+07 2.65021e+07 2.65036e+07 2.6505e+07 2.65065e+07 2.65079e+07 2.65093e+07 2.65108e+07 2.65123e+07
          2.65138e+07 2.65154e+07 2.65172e+07 2.65194e+07 2.65238e+07 2.64619e+07 2.64633e+07 2.64647e+07 2.64661e+07 2.64675e+07 2.64689e+07 2.64703e+07
          2.64717e+07 2.64731e+07 2.64743e+07 2.64756e+07 2.64768e+07 2.64782e+07 2.64796e+07 2.64811e+07 2.64825e+07 2.64839e+07 2.64854e+07 2.64868e+07
          2.64883e+07 2.64898e+07 2.64913e+07 2.64931e+07 2.64951e+07 2.64994e+07 2.64374e+07 2.64389e+07 2.64405e+07 2.6442e+07 2.64434e+07 2.64449e+07
          2.64463e+07 2.64478e+07 2.64492e+07 2.64505e+07 2.64517e+07 2.64529e+07 2.64543e+07 2.64557e+07 2.64571e+07 2.64585e+07 2.64599e+07 2.64614e+07
          2.64628e+07 2.64642e+07 2.64657e+07 2.64671e+07 2.64687e+07 2.64703e+07 2.64728e+07 2.64129e+07 2.64146e+07 2.64163e+07 2.64178e+07 2.64194e+07
          2.64209e+07 2.64223e+07 2.64238e+07 2.64253e+07 2.64266e+07 2.64278e+07 2.6429e+07 2.64304e+07 2.64318e+07 2.64332e+07 2.64345e+07 2.64359e+07
          2.64373e+07 2.64387e+07 2.64401e+07 2.64415e+07 2.64429e+07 2.64442e+07 2.64453e+07 2.64458e+07 2.63885e+07 2.63904e+07 2.63922e+07 2.63938e+07
          2.63953e+07 2.63969e+07 2.63984e+07 2.63999e+07 2.64014e+07 2.64028e+07 2.6404e+07 2.64052e+07 2.64065e+07 2.64078e+07 2.64092e+07 2.64106e+07
          2.6412e+07 2.64133e+07 2.64147e+07 2.64161e+07 2.64174e+07 2.64187e+07 2.64198e+07 2.64206e+07 2.64209e+07 2.6364e+07 2.6366e+07 2.63678e+07
          2.63695e+07 2.63711e+07 2.63727e+07 2.63743e+07 2.63758e+07 2.63774e+07 2.63787e+07 2.638e+07 2.63812e+07 2.63824e+07 2.63838e+07 2.63851e+07
          2.63865e+07 2.63878e+07 2.63891e+07 2.63904e+07 2.63917e+07 2.63929e+07 2.63941e+07 2.6395e+07 2.63957e+07 2.63959e+07 2.63394e+07 2.63414e+07
          2.63433e+07 2.63451e+07 2.63468e+07 2.63484e+07 2.635e+07 2.63516e+07 2.63532e+07 2.63545e+07 2.63558e+07 2.6357e+07 2.63583e+07 2.63596e+07
          2.63609e+07 2.63622e+07 2.63635e+07 2.63647e+07 2.63659e+07 2.63671e+07 2.63681e+07 2.6369e+07 2.63698e+07 2.63703e+07 2.63704e+07 2.63149e+07
          2.63169e+07 2.63189e+07 2.63207e+07 2.63225e+07 2.63242e+07 2.63258e+07 2.63275e+07 2.63291e+07 2.63304e+07 2.63316e+07 2.63328e+07 2.63342e+07
          2.63355e+07 2.63368e+07 2.6338e+07 2.63392e+07 2.63404e+07 2.63415e+07 2.63425e+07 2.63434e+07 2.63442e+07 2.63448e+07 2.63452e+07 2.63453e+07
          2.62904e+07 2.62925e+07 2.62945e+07 2.62964e+07 2.62983e+07 2.63e+07 2.63017e+07 2.63033e+07 2.63049e+07 2.63063e+07 2.63076e+07 2.63088e+07
          2.63101e+07 2.63114e+07 2.63126e+07 2.63138e+07 2.6315e+07 2.63161e+07 2.63171e+07 2.6318e+07 2.63189e+07 2.63196e+07 2.63201e+07 2.63204e+07
          2.63205e+07 2.62659e+07 2.62682e+07 2.62703e+07 2.62723e+07 2.62741e+07 2.62758e+07 2.62775e+07 2.62792e+07 2.62808e+07 2.62823e+07 2.62836e+07
          2.62848e+07 2.62861e+07 2.62873e+07 2.62885e+07 2.62897e+07 2.62908e+07 2.62918e+07 2.62928e+07 2.62937e+07 2.62944e+07 2.62951e+07 2.62955e+07
          2.62958e+07 2.62959e+07 2.62415e+07 2.62441e+07 2.62463e+07 2.62482e+07 2.625e+07 2.62518e+07 2.62534e+07 2.62551e+07 2.62567e+07 2.62582e+07
          2.62596e+07 2.62609e+07 2.6262e+07 2.62633e+07 2.62644e+07 2.62656e+07 2.62666e+07 2.62677e+07 2.62686e+07 2.62694e+07 2.62701e+07 2.62707e+07
          2.62712e+07 2.62714e+07 2.62715e+07 2.62175e+07 2.62206e+07 2.62224e+07 2.62242e+07 2.6226e+07 2.62277e+07 2.62294e+07 2.6231e+07 2.62326e+07
          2.62341e+07 2.62355e+07 2.62368e+07 2.6238e+07 2.62392e+07 2.62404e+07 2.62415e+07 2.62426e+07 2.62436e+07 2.62445e+07 2.62453e+07 2.6246e+07
          2.62465e+07 2.6247e+07 2.62472e+07 2.62473e+07 2.61985e+07 2.6197e+07 2.61985e+07 2.62002e+07 2.6202e+07 2.62037e+07 2.62054e+07 2.6207e+07
          2.62086e+07 2.62101e+07 2.62115e+07 2.62128e+07 2.62141e+07 2.62153e+07 2.62164e+07 2.62175e+07 2.62186e+07 2.62196e+07 2.62205e+07 2.62213e+07
          2.6222e+07 2.62225e+07 2.62229e+07 2.62232e+07 2.62232e+07
        </DataArray>
        <DataArray type="Float32" Name="pressure_g" NumberOfComponents="1" format="ascii">
          2.65915e+07 2.65939e+07 2.65696e+07 2.65701e+07 2.65951e+07 2.65712e+07 2.65963e+07 2.65724e+07 2.65976e+07 2.65736e+07 2.65988e+07 2.65749e+07
          2.66001e+07 2.65762e+07 2.66014e+07 2.65774e+07 2.66026e+07 2.65787e+07 2.66039e+07 2.658e+07 2.66052e+07 2.65813e+07 2.66066e+07 2.65826e+07
          2.6608e+07 2.6584e+07 2.66094e+07 2.65854e+07 2.66108e+07 2.65869e+07 2.66123e+07 2.65883e+07 2.66137e+07 2.65898e+07 2.66152e+07 2.65912e+07
          2.66166e+07 2.65927e+07 2.66181e+07 2.65941e+07 2.66195e+07 2.65956e+07 2.66209e+07 2.6597e+07 2.66221e+07 2.65983e+07 2.6623e+07 2.65994e+07
          2.66234e+07 2.65998e+07 2.65453e+07 2.65461e+07 2.65472e+07 2.65484e+07 2.65496e+07 2.65509e+07 2.65522e+07 2.65535e+07 2.65548e+07 2.6556e+07
          2.65572e+07 2.65586e+07 2.656e+07 2.65615e+07 2.65629e+07 2.65644e+07 2.65658e+07 2.65673e+07 2.65687e+07 2.65702e+07 2.65717e+07 2.65732e+07
          2.65747e+07 2.65762e+07 2.65784e+07 2.65208e+07 2.65219e+07 2.65231e+07 2.65243e+07 2.65256e+07 2.65269e+07 2.65282e+07 2.65296e+07 2.65309e+07
          2.6532e+07 2.65333e+07 2.65345e+07 2.65361e+07 2.65375e+07 2.6539e+07 2.65404e+07 2.65419e+07 2.65433e+07 2.65448e+07 2.65463e+07 2.65478e+07
          2.65494e+07 2.6551e+07 2.6553e+07 2.65575e+07 2.64964e+07 2.64976e+07 2.64989e+07 2.65002e+07 2.65016e+07 2.65029e+07 2.65043e+07 2.65056e+07
          2.6507e+07 2.65082e+07 2.65094e+07 2.65107e+07 2.65121e+07 2.65136e+07 2.6515e+07 2.65165e+07 2.65179e+07 2.65193e+07 2.65208e+07 2.65223e+07
          2.65238e+07 2.65254e+07 2.65272e+07 2.65294e+07 2.65345e+07 2.64719e+07 2.64733e+07 2.64747e+07 2.64761e+07 2.64775e+07 2.64789e+07 2.64803e+07
          2.64817e+07 2.64831e+07 2.64843e+07 2.64856e+07 2.64868e+07 2.64882e+07 2.64896e+07 2.64911e+07 2.64925e+07 2.64939e+07 2.64954e+07 2.64968e+07
          2.64983e+07 2.64998e+07 2.65013e+07 2.65031e+07 2.65051e+07 2.65101e+07 2.64474e+07 2.64489e+07 2.64505e+07 2.6452e+07 2.64534e+07 2.64549e+07
          2.64563e+07 2.64578e+07 2.64592e+07 2.64605e+07 2.64617e+07 2.64629e+07 2.64643e+07 2.64657e+07 2.64671e+07 2.64685e+07 2.64699e+07 2.64714e+07
          2.64728e+07 2.64742e+07 2.64757e+07 2.64771e+07 2.64787e+07 2.64803e+07 2.64832e+07 2.64229e+07 2.64246e+07 2.64263e+07 2.64278e+07 2.64294e+07
          2.64309e+07 2.64323e+07 2.64338e+07 2.64353e+07 2.64366e+07 2.64378e+07 2.6439e+07 2.64404e+07 2.64418e+07 2.64432e+07 2.64445e+07 2.64459e+07
          2.64473e+07 2.64487e+07 2.64501e+07 2.64515e+07 2.64529e+07 2.64542e+07 2.64553e+07 2.64558e+07 2.63985e+07 2.64004e+07 2.64022e+07 2.64038e+07
          2.64053e+07 2.64069e+07 2.64084e+07 2.64099e+07 2.64114e+07 2.64128e+07 2.6414e+07 2.64152e+07 2.64165e+07 2.64178e+07 2.64192e+07 2.64206e+07
          2.6422e+07 2.64233e+07 2.64247e+07 2.64261e+07 2.64274e+07 2.64287e+07 2.64298e+07 2.64306e+07 2.64309e+07 2.6374e+07 2.6376e+07 2.63778e+07
          2.63795e+07 2.63811e+07 2.63827e+07 2.63843e+07 2.63858e+07 2.63874e+07 2.63887e+07 2.639e+07 2.63912e+07 2.63924e+07 2.63938e+07 2.63951e+07
          2.63965e+07 2.63978e+07 2.63991e+07 2.64004e+07 2.64017e+07 2.64029e+07 2.64041e+07 2.6405e+07 2.64057e+07 2.64059e+07 2.63494e+07 2.63514e+07
          2.63533e+07 2.63551e+07 2.63568e+07 2.63584e+07 2.636e+07 2.63616e+07 2.63632e+07 2.63645e+07 2.63658e+07 2.6367e+07 2.63683e+07 2.63696e+07
          2.63709e+07 2.63722e+07 2.63735e+07 2.63747e+07 2.63759e+07 2.63771e+07 2.63781e+07 2.6379e+07 2.63798e+07 2.63803e+07 2.63804e+07 2.63249e+07
          2.63269e+07 2.63289e+07 2.63307e+07 2.63325e+07 2.63342e+07 2.63358e+07 2.63375e+07 2.63391e+07 2.63404e+07 2.63416e+07 2.63428e+07 2.63442e+07
          2.63455e+07 2.63468e+07 2.6348e+07 2.63492e+07 2.63504e+07 2.63515e+07 2.63525e+07 2.63534e+07 2.63542e+07 2.63548e+07 2.63552e+07 2.63553e+07
          2.63004e+07 2.63025e+07 2.63045e+07 2.63064e+07 2.63083e+07 2.631e+07 2.63117e+07 2.63133e+07 2.63149e+07 2.63163e+07 2.63176e+07 2.63188e+07
          2.63201e+07 2.63214e+07 2.63226e+07 2.63238e+07 2.6325e+07 2.63261e+07 2.63271e+07 2.6328e+07 2.63289e+07 2.63296e+07 2.63301e+07 2.63304e+07
          2.63305e+07 2.62759e+07 2.62782e+07 2.62803e+07 2.62823e+07 2.62841e+07 2.62858e+07 2.62875e+07 2.62892e+07 2.62908e+07 2.62923e+07 2.62936e+07
          2.62948e+07 2.62961e+07 2.62973e+07 2.62985e+07 2.62997e+07 2.63008e+07 2.63018e+07 2.63028e+07 2.63037e+07 2.63044e+07 2.63051e+07 2.63055e+07
          2.63058e+07 2.63059e+07 2.62515e+07 2.62541e+07 2.62563e+07 2.62582e+07 2.626e+07 2.62618e+07 2.62634e+07 2.62651e+07 2.62667e+07 2.62682e+07
          2.62696e+07 2.62709e+07 2.6272e+07 2.62733e+07 2.62744e+07 2.62756e+07 2.62766e+07 2.62777e+07 2.62786e+07 2.62794e+07 2.62801e+07 2.62807e+07
          2.62812e+07 2.62814e+07 2.62815e+07 2.62275e+07 2.62306e+07 2.62324e+07 2.62342e+07 2.6236e+07 2.62377e+07 2.62394e+07 2.6241e+07 2.62426e+07
          2.62441e+07 2.62455e+07 2.62468e+07 2.6248e+07 2.62492e+07 2.62504e+07 2.62515e+07 2.62526e+07 2.62536e+07 2.62545e+07 2.62553e+07 2.6256e+07
          2.62565e+07 2.6257e+07 2.62572e+07 2.62573e+07 2.62085e+07 2.6207e+07 2.62085e+07 2.62102e+07 2.6212e+07 2.62137e+07 2.62154e+07 2.6217e+07
          2.62186e+07 2.62201e+07 2.62215e+07 2.62228e+07 2.62241e+07 2.62253e+07 2.62264e+07 2.62275e+07 2.62286e+07 2.62296e+07 2.62305e+07 2.62313e+07
          2.6232e+07 2.62325e+07 2.62329e+07 2.62332e+07 2.62332e+07
        </DataArray>
        <DataArray type="Float32" Name="density_l" NumberOfComponents="1" format="ascii">
          976.463 976.464 976.5 976.501 976.464 976.502 976.464 976.502 976.465 976.503 976.465 976.503
          976.466 976.504 976.466 976.505 976.467 976.505 976.467 976.506 976.468 976.506 976.469 976.507
          976.469 976.507 976.47 976.508 976.47 976.508 976.471 976.509 976.471 976.51 976.472 976.51
          976.473 976.511 976.473 976.511 976.474 976.512 976.474 976.513 976.475 976.513 976.475 976.514
          976.476 976.514 976.538 976.54 976.54 976.541 976.541 976.542 976.542 976.543 976.539 976.53
          976.526 976.531 976.541 976.546 976.547 976.547 976.548 976.548 976.549 976.55 976.55 976.551
          976.552 976.552 976.553 976.576 976.578 976.578 976.579 976.58 976.58 976.581 976.58 976.464
          965.538 965.529 965.678 976.57 976.584 976.585 976.586 976.586 976.587 976.587 976.588 976.589
          976.589 976.59 976.591 976.592 976.614 976.616 976.617 976.617 976.618 976.618 976.619 976.619
          976.494 965.503 965.485 965.632 976.604 976.623 976.623 976.624 976.625 976.625 976.626 976.626
          976.627 976.628 976.628 976.629 976.631 976.652 976.654 976.655 976.655 976.656 976.657 976.657
          976.657 976.53 965.493 965.474 965.619 976.643 976.661 976.662 976.662 976.663 976.663 976.664
          976.665 976.665 976.666 976.667 976.667 976.669 976.69 976.692 976.693 976.694 976.694 976.695
          976.696 976.695 976.565 965.482 965.464 965.606 976.681 976.699 976.7 976.701 976.701 976.702
          976.702 976.703 976.703 976.704 976.705 976.705 976.706 976.728 976.731 976.731 976.732 976.733
          976.733 976.734 976.733 976.599 965.472 965.453 965.592 976.719 976.738 976.738 976.739 976.739
          976.74 976.741 976.741 976.742 976.742 976.743 976.743 976.743 976.767 976.769 976.77 976.77
          976.771 976.772 976.772 976.772 976.63 965.461 965.443 965.575 976.757 976.776 976.777 976.777
          976.778 976.778 976.779 976.779 976.78 976.78 976.781 976.781 976.781 976.806 976.807 976.808
          976.809 976.809 976.81 976.81 976.811 976.78 965.451 965.431 965.463 976.795 976.814 976.815
          976.815 976.816 976.817 976.817 976.818 976.818 976.819 976.819 976.819 976.819 976.844 976.845
          976.846 976.847 976.847 976.848 976.849 976.849 976.819 965.44 965.42 965.453 976.833 976.853
          976.853 976.854 976.854 976.855 976.855 976.856 976.856 976.856 976.857 976.857 976.857 976.882
          976.883 976.884 976.885 976.886 976.886 976.887 976.888 976.857 965.43 965.409 965.443 976.872
          976.891 976.891 976.892 976.892 976.893 976.893 976.894 976.894 976.894 976.895 976.895 976.895
          976.92 976.921 976.922 976.923 976.924 976.924 976.925 976.926 976.895 965.419 965.399 965.432
          976.91 976.929 976.93 976.93 976.931 976.931 976.932 976.932 976.932 976.932 976.933 976.933
          976.933 976.958 976.96 976.961 976.961 976.962 976.963 976.963 976.964 976.937 965.424 965.409
          965.436 976.953 976.967 976.968 976.968 976.969 976.969 976.97 976.97 976.97 976.971 976.971
          976.971 976.971 976.997 976.998 976.999 977 977 977.001 977.002 977.002 976.998 976.987
          976.984 976.989 977.001 977.006 977.006 977.007 977.007 977.008 977.008 977.008 977.009 977.009
          977.009 977.009 977.009 977.035 977.036 977.037 977.038 977.039 977.039 977.04 977.041 977.041
          977.042 977.043 977.043 977.044 977.044 977.045 977.045 977.045 977.046 977.046 977.047 977.047
          977.047 977.047 977.047 977.047 977.075 977.075 977.075 977.076 977.077 977.078 977.078 977.079
          977.08 977.08 977.081 977.081 977.082 977.082 977.083 977.083 977.084 977.084 977.084 977.085
          977.085 977.085 977.085 977.086 977.086
        </DataArray>
        <DataArray type="Float32" Name="density_g" NumberOfComponents="1" format="ascii">
          246.136 246.157 245.981 245.987 246.168 245.997 246.18 246.008 246.191 246.02 246.203 246.031
          246.214 246.043 246.226 246.055 246.238 246.067 246.25 246.078 246.262 246.09 246.274 246.103
          246.287 246.116 246.3 246.129 246.313 246.142 246.327 246.156 246.34 246.169 246.354 246.182
          246.367 246.196 246.38 246.209 246.394 246.223 246.406 246.236 246.418 246.248 246.426 246.258
          246.429 246.262 245.806 245.816 245.826 245.837 245.848 245.86 245.872 245.884 245.891 245.893
          245.9 245.917 245.94 245.958 245.971 245.985 245.998 246.011 246.025 246.038 246.052 246.066
          246.08 246.094 246.115 245.631 245.642 245.653 245.665 245.676 245.689 245.701 245.712 245.603
          235.282 235.284 235.424 245.759 245.787 245.8 245.813 245.827 245.84 245.854 245.867 245.881
          245.896 245.912 245.93 245.971 245.455 245.468 245.48 245.492 245.504 245.517 245.529 245.541
          245.424 235.05 235.044 235.181 245.583 245.615 245.629 245.642 245.655 245.669 245.682 245.696
          245.71 245.725 245.742 245.762 245.809 245.278 245.293 245.306 245.319 245.332 245.345 245.358
          245.37 245.25 234.838 234.832 234.967 245.412 245.444 245.457 245.471 245.484 245.497 245.51
          245.524 245.538 245.553 245.568 245.587 245.634 245.102 245.118 245.132 245.146 245.159 245.173
          245.186 245.199 245.076 234.626 234.621 234.754 245.241 245.273 245.286 245.299 245.312 245.325
          245.339 245.352 245.365 245.379 245.393 245.408 245.434 244.926 244.943 244.958 244.973 244.987
          245.001 245.015 245.027 244.901 234.415 234.409 234.539 245.07 245.102 245.115 245.128 245.14
          245.153 245.166 245.179 245.192 245.205 245.216 245.227 245.231 244.75 244.769 244.785 244.8
          244.815 244.829 244.843 244.856 244.722 234.203 234.198 234.322 244.899 244.93 244.943 244.956
          244.969 244.981 244.994 245.007 245.019 245.031 245.041 245.049 245.052 244.575 244.594 244.61
          244.626 244.641 244.656 244.67 244.684 244.666 233.991 233.984 234.022 244.726 244.758 244.77
          244.783 244.795 244.807 244.82 244.831 244.843 244.853 244.862 244.868 244.87 244.397 244.416
          244.433 244.45 244.466 244.481 244.496 244.51 244.493 233.776 233.769 233.808 244.553 244.584
          244.597 244.608 244.62 244.632 244.643 244.653 244.663 244.672 244.678 244.683 244.685 244.22
          244.239 244.257 244.274 244.291 244.306 244.322 244.337 244.319 233.562 233.555 233.594 244.38
          244.411 244.423 244.434 244.445 244.456 244.466 244.476 244.485 244.492 244.497 244.501 244.502
          244.043 244.063 244.082 244.099 244.116 244.132 244.148 244.163 244.146 233.348 233.342 233.381
          244.207 244.238 244.249 244.26 244.271 244.281 244.291 244.299 244.307 244.313 244.318 244.321
          244.322 243.867 243.888 243.907 243.925 243.942 243.959 243.974 243.99 243.976 233.149 233.147
          233.181 244.039 244.065 244.076 244.087 244.097 244.107 244.116 244.124 244.131 244.137 244.141
          244.144 244.145 243.691 243.715 243.735 243.752 243.769 243.785 243.801 243.816 243.826 243.828
          243.837 243.854 243.876 243.892 243.903 243.913 243.923 243.933 243.941 243.949 243.956 243.961
          243.965 243.968 243.969 243.518 243.546 243.563 243.58 243.597 243.613 243.628 243.643 243.658
          243.672 243.685 243.697 243.708 243.719 243.73 243.741 243.75 243.76 243.768 243.775 243.782
          243.787 243.791 243.793 243.794 243.392 243.378 243.391 243.408 243.424 243.44 243.456 243.471
          243.485 243.499 243.512 243.524 243.536 243.547 243.558 243.568 243.578 243.587 243.595 243.603
          243.609 243.614 243.618 243.62 243.621
        </DataArray>
        <DataArray type="Float32" Name="saturation_l" NumberOfComponents="1" format="ascii">
          1 1 1 1 1 1 1 1 1 1 1 1
          1 1 1 1 1 1 1 1 1 1 1 1
          1 1 1 1 1 1 1 1 1 1 1 1
          1 1 1 1 1 1 1 1 1 1 1 1
          1 1 1 1 1 1 1 1 1 1 1 1
          1 1 1 1 1 1 1 1 1 1 1 1
          1 0.999871 0.946986 1 1 1 1 1 1 1 1 1
          1 1 1 1 1 1 1 1 1 1 1 1
          1 1 0.99837 0.900635 1 1 1 1 1 1 1 1
          1 1 1 1 1 1 1 1 1 1 1 1
          1 1 1 0.997939 0.896774 1 1 1 1 1 1 1
          1 1 1 1 1 1 1 1 1 1 1 1
          1 1 1 1 0.998044 0.896298 1 1 1 1 1 1
          1 1 1 1 1 1 1 1 1 1 1 1
          1 1 1 1 1 0.999781 0.939014 1 1 1 1 1
          1 1 1 1 1 1 1 1 1 1 1 1
          1 1 1 1 1 1 1 0.998301 1 1 1 1
          1 1 1 1 1 1 1 1 1 1 1 1
          1 1 1 1 1 1 1 1 1 1 1 1
          1 1 1 1 1 1 1 1 1 1 1 1
          1 1 1 1 1 1 1 1 1 1 1 1
          1 1 1 1 1 1 1 1 1 1 1 1
          1 1 1 1 1 1 1 1 1 1 1 1
          1 1 1 1 1 1 1 1 1 1 1 1
          1 1 1 1 1 1 1 1 1 1 1 1
          1 1 1 1 1 1 1 1 1 1 1 1
          1 1 1 1 1 1 1 1 1 1 1 1
          1 1 1 1 1 1 1 1 1 1 1 1
          1 1 1 1 1 1 1 1 1 1 1 1
          1 1 1 1 1 1 1 1 1 1 1 1
          1 1 1 1 1 1 1 1 1 1 1 1
          1 1 1 1 1 1 1 1 1 1 1 1
          1 1 1 1 1 1 1 1 1 1 1 1
          1 1 1 1 1 1 1 1 1 1 1 1
          1 1 1 1 1 1 1 1 1 1 1 1
          1 1 1 1 1
        </DataArray>
        <DataArray type="Float32" Name="saturation_g" NumberOfComponents="1" format="ascii">
          0 0 0 0 0 0 0 0 0 0 0 0
          0 0 0 0 0 0 0 0 0 0 0 0
          0 0 0 0 0 0 0 0 0 0 0 0
          0 0 0 0 0 0 0 0 0 0 0 0
          0 0 0 0 0 0 0 0 0 0 0 0
          0 0 0 0 0 0 0 0 0 0 0 0
          8.00804e-13 0.000129355 0.0530135 0 0 0 0 0 0 0 0 0
          0 0 0 0 0 0 0 0 0 0 0 0
          0 2.05898e-09 0.00162983 0.0993654 0 0 0 0 0 0 0 0
          0 0 0 0 0 0 0 0 0 0 0 0
          0 0 4.53776e-09 0.00206146 0.103226 0 0 0 0 0 0 0
          0 0 0 0 0 0 0 0 0 0 0 0
          0 0 0 3.60512e-09 0.00195604 0.103702 0 0 0 0 0 0
          0 0 0 0 0 0 0 0 0 0 0 0
          0 0 0 0 3.80651e-12 0.000218897 0.0609862 0 0 0 0 0
          0 0 0 0 0 0 0 0 0 0 0 0
          0 0 0 0 0 0 8.53907e-10 0.0016992 0 0 0 0
          0 0 0 0 0 0 0 0 0 0 0 0
          0 0 0 0 0 0 0 0 2.1559e-08 0 0 0
          0 0 0 0 0 0 0 0 0 0 0 0
          0 0 0 0 0 0 0 0 0 0 0 0
          0 0 0 0 0 0 0 0 0 0 0 0
          0 0 0 0 0 0 0 0 0 0 0 0
          0 0 0 0 0 0 0 0 0 0 0 0
          0 0 0 0 0 0 0 0 0 0 0 0
          0 0 0 0 0 0 0 0 0 0 0 0
          0 0 0 0 0 0 0 0 0 0 0 0
          0 0 0 0 0 0 0 0 0 0 0 0
          0 0 0 0 0 0 0 0 0 0 0 0
          0 0 0 0 0 0 0 0 0 0 0 0
          0 0 0 0 0 0 0 0 0 0 0 0
          0 0 0 0 0 0 0 0 0 0 0 0
          0 0 0 0 0 0 0 0 0 0 0 0
          0 0 0 0 0 0 0 0 0 0 0 0
          0 0 0 0 0 0 0 0 0 0 0 0
          0 0 0 0 0
        </DataArray>
        <DataArray type="Float32" Name="relativePerm_l" NumberOfComponents="1" format="ascii">
          1 1 1 1 1 1 1 1 1 1 1 1
          1 1 1 1 1 1 1 1 1 1 1 1
          1 1 1 1 1 1 1 1 1 1 1 1
          1 1 1 1 1 1 1 1 1 1 1 1
          1 1 1 1 1 1 1 1 1 1 1 1
          1 1 1 1 1 1 1 1 1 1 1 1
          1 0.999353 0.760136 1 1 1 1 1 1 1 1 1
          1 1 1 1 1 1 1 1 1 1 1 1
          1 1 0.991876 0.58831 1 1 1 1 1 1 1 1
          1 1 1 1 1 1 1 1 1 1 1 1
          1 1 1 0.989733 0.575449 1 1 1 1 1 1 1
          1 1 1 1 1 1 1 1 1 1 1 1
          1 1 1 1 0.990256 0.57388 1 1 1 1 1 1
          1 1 1 1 1 1 1 1 1 1 1 1
          1 1 1 1 1 0.998906 0.728199 1 1 1 1 1
          1 1 1 1 1 1 1 1 1 1 1 1
          1 1 1 1 1 1 1 0.991531 1 1 1 1
          1 1 1 1 1 1 1 1 1 1 1 1
          1 1 1 1 1 1 1 1 1 1 1 1
          1 1 1 1 1 1 1 1 1 1 1 1
          1 1 1 1 1 1 1 1 1 1 1 1
          1 1 1 1 1 1 1 1 1 1 1 1
          1 1 1 1 1 1 1 1 1 1 1 1
          1 1 1 1 1 1 1 1 1 1 1 1
          1 1 1 1 1 1 1 1 1 1 1 1
          1 1 1 1 1 1 1 1 1 1 1 1
          1 1 1 1 1 1 1 1 1 1 1 1
          1 1 1 1 1 1 1 1 1 1 1 1
          1 1 1 1 1 1 1 1 1 1 1 1
          1 1 1 1 1 1 1 1 1 1 1 1
          1 1 1 1 1 1 1 1 1 1 1 1
          1 1 1 1 1 1 1 1 1 1 1 1
          1 1 1 1 1 1 1 1 1 1 1 1
          1 1 1 1 1 1 1 1 1 1 1 1
          1 1 1 1 1 1 1 1 1 1 1 1
          1 1 1 1 1
        </DataArray>
        <DataArray type="Float32" Name="relativePerm_g" NumberOfComponents="1" format="ascii">
          0 0 0 0 0 0 0 0 0 0 0 0
          0 0 0 0 0 0 0 0 0 0 0 0
          0 0 0 0 0 0 0 0 0 0 0 0
          0 0 0 0 0 0 0 0 0 0 0 0
          0 0 0 0 0 0 0 0 0 0 0 0
          0 0 0 0 0 0 0 0 0 0 0 0
          2.00654e-36 8.45428e-12 0.000562711 0 0 0 0 0 0 0 0 0
          0 0 0 0 0 0 0 0 0 0 0 0
          0 3.4097e-26 1.68944e-08 0.00359435 0 0 0 0 0 0 0 0
          0 0 0 0 0 0 0 0 0 0 0 0
          0 0 3.64994e-25 3.41761e-08 0.00401948 0 0 0 0 0 0 0
          0 0 0 0 0 0 0 0 0 0 0 0
          0 0 0 1.83028e-25 2.91987e-08 0.00407395 0 0 0 0 0 0
          0 0 0 0 0 0 0 0 0 0 0 0
          0 0 0 0 2.1544e-34 4.09655e-11 0.000852272 0 0 0 0 0
          0 0 0 0 0 0 0 0 0 0 0 0
          0 0 0 0 0 0 2.43216e-27 1.91438e-08 0 0 0 0
          0 0 0 0 0 0 0 0 0 0 0 0
          0 0 0 0 0 0 0 0 3.91425e-23 0 0 0
          0 0 0 0 0 0 0 0 0 0 0 0
          0 0 0 0 0 0 0 0 0 0 0 0
          0 0 0 0 0 0 0 0 0 0 0 0
          0 0 0 0 0 0 0 0 0 0 0 0
          0 0 0 0 0 0 0 0 0 0 0 0
          0 0 0 0 0 0 0 0 0 0 0 0
          0 0 0 0 0 0 0 0 0 0 0 0
          0 0 0 0 0 0 0 0 0 0 0 0
          0 0 0 0 0 0 0 0 0 0 0 0
          0 0 0 0 0 0 0 0 0 0 0 0
          0 0 0 0 0 0 0 0 0 0 0 0
          0 0 0 0 0 0 0 0 0 0 0 0
          0 0 0 0 0 0 0 0 0 0 0 0
          0 0 0 0 0 0 0 0 0 0 0 0
          0 0 0 0 0 0 0 0 0 0 0 0
          0 0 0 0 0 0 0 0 0 0 0 0
          0 0 0 0 0
        </DataArray>
        <DataArray type="Float32" Name="porosity" NumberOfComponents="1" format="ascii">
          0.3 0.3 0.3 0.3 0.3 0.3 0.3 0.3 0.3 0.3 0.3 0.3
          0.3 0.3 0.3 0.3 0.3 0.3 0.3 0.3 0.3 0.3 0.3 0.3
          0.3 0.3 0.3 0.3 0.3 0.3 0.3 0.3 0.3 0.3 0.3 0.3
          0.3 0.3 0.3 0.3 0.3 0.3 0.3 0.3 0.3 0.3 0.3 0.3
          0.3 0.3 0.3 0.3 0.3 0.3 0.3 0.3 0.3 0.3 0.3 0.3
          0.3 0.3 0.3 0.3 0.3 0.3 0.3 0.3 0.3 0.3 0.3 0.3
          0.3 0.3 0.3 0.3 0.3 0.3 0.3 0.3 0.3 0.3 0.3 0.3
          0.3 0.3 0.3 0.3 0.3 0.3 0.3 0.3 0.3 0.3 0.3 0.3
          0.3 0.3 0.3 0.3 0.3 0.3 0.3 0.3 0.3 0.3 0.3 0.3
          0.3 0.3 0.3 0.3 0.3 0.3 0.3 0.3 0.3 0.3 0.3 0.3
          0.3 0.3 0.3 0.3 0.3 0.3 0.3 0.3 0.3 0.3 0.3 0.3
          0.3 0.3 0.3 0.3 0.3 0.3 0.3 0.3 0.3 0.3 0.3 0.3
          0.3 0.3 0.3 0.3 0.3 0.3 0.3 0.3 0.3 0.3 0.3 0.3
          0.3 0.3 0.3 0.3 0.3 0.3 0.3 0.3 0.3 0.3 0.3 0.3
          0.3 0.3 0.3 0.3 0.3 0.3 0.3 0.3 0.3 0.3 0.3 0.3
          0.3 0.3 0.3 0.3 0.3 0.3 0.3 0.3 0.3 0.3 0.3 0.3
          0.3 0.3 0.3 0.3 0.3 0.3 0.3 0.3 0.3 0.3 0.3 0.3
          0.3 0.3 0.3 0.3 0.3 0.3 0.3 0.3 0.3 0.3 0.3 0.3
          0.3 0.3 0.3 0.3 0.3 0.3 0.3 0.3 0.3 0.3 0.3 0.3
          0.3 0.3 0.3 0.3 0.3 0.3 0.3 0.3 0.3 0.3 0.3 0.3
          0.3 0.3 0.3 0.3 0.3 0.3 0.3 0.3 0.3 0.3 0.3 0.3
          0.3 0.3 0.3 0.3 0.3 0.3 0.3 0.3 0.3 0.3 0.3 0.3
          0.3 0.3 0.3 0.3 0.3 0.3 0.3 0.3 0.3 0.3 0.3 0.3
          0.3 0.3 0.3 0.3 0.3 0.3 0.3 0.3 0.3 0.3 0.3 0.3
          0.3 0.3 0.3 0.3 0.3 0.3 0.3 0.3 0.3 0.3 0.3 0.3
          0.3 0.3 0.3 0.3 0.3 0.3 0.3 0.3 0.3 0.3 0.3 0.3
          0.3 0.3 0.3 0.3 0.3 0.3 0.3 0.3 0.3 0.3 0.3 0.3
          0.3 0.3 0.3 0.3 0.3 0.3 0.3 0.3 0.3 0.3 0.3 0.3
          0.3 0.3 0.3 0.3 0.3 0.3 0.3 0.3 0.3 0.3 0.3 0.3
          0.3 0.3 0.3 0.3 0.3 0.3 0.3 0.3 0.3 0.3 0.3 0.3
          0.3 0.3 0.3 0.3 0.3 0.3 0.3 0.3 0.3 0.3 0.3 0.3
          0.3 0.3 0.3 0.3 0.3 0.3 0.3 0.3 0.3 0.3 0.3 0.3
          0.3 0.3 0.3 0.3 0.3 0.3 0.3 0.3 0.3 0.3 0.3 0.3
          0.3 0.3 0.3 0.3 0.3 0.3 0.3 0.3 0.3 0.3 0.3 0.3
          0.3 0.3 0.3 0.3 0.3 0.3 0.3 0.3 0.3 0.3 0.3 0.3
          0.3 0.3 0.3 0.3 0.3
        </DataArray>
        <DataArray type="Float32" Name="temperature" NumberOfComponents="1" format="ascii">
          363.998 363.999 363.927 363.925 364 363.925 364 363.925 364 363.925 364 363.925
          364 363.925 364 363.925 364 363.925 364 363.925 364 363.925 364 363.925
          364 363.925 364 363.925 364 363.925 364 363.925 364 363.925 364 363.926
          364 363.926 364 363.926 364 363.926 364 363.926 364 363.925 364 363.925
          364 363.925 363.852 363.85 363.85 363.85 363.85 363.85 363.85 363.85 363.857 363.871
          363.878 363.871 363.857 363.85 363.85 363.85 363.85 363.851 363.851 363.851 363.851 363.851
          363.851 363.85 363.85 363.778 363.775 363.775 363.775 363.775 363.775 363.775 363.776 363.957
          379.939 379.952 379.745 363.796 363.775 363.775 363.775 363.776 363.776 363.776 363.776 363.776
          363.776 363.776 363.776 363.776 363.703 363.7 363.7 363.7 363.7 363.7 363.7 363.702
          363.894 379.973 379.999 379.795 363.728 363.7 363.7 363.7 363.701 363.701 363.701 363.701
          363.701 363.701 363.701 363.701 363.701 363.628 363.625 363.625 363.625 363.625 363.625 363.625
          363.627 363.824 379.972 379.999 379.798 363.653 363.625 363.625 363.625 363.626 363.626 363.626
          363.626 363.626 363.626 363.626 363.626 363.626 363.553 363.55 363.55 363.55 363.55 363.55
          363.55 363.552 363.753 379.972 379.999 379.801 363.578 363.55 363.55 363.551 363.551 363.551
          363.551 363.551 363.551 363.551 363.551 363.551 363.552 363.478 363.475 363.475 363.475 363.475
          363.475 363.475 363.477 363.685 379.972 379.999 379.806 363.503 363.475 363.475 363.476 363.476
          363.476 363.476 363.476 363.476 363.476 363.476 363.477 363.477 363.402 363.4 363.4 363.4
          363.4 363.4 363.4 363.402 363.621 379.972 379.999 379.815 363.429 363.4 363.401 363.401
          363.401 363.401 363.401 363.401 363.401 363.401 363.401 363.401 363.401 363.325 363.325 363.325
          363.325 363.325 363.325 363.325 363.325 363.374 379.972 380 379.956 363.354 363.326 363.326
          363.326 363.326 363.326 363.326 363.326 363.326 363.326 363.326 363.326 363.326 363.25 363.25
          363.25 363.25 363.25 363.25 363.25 363.25 363.298 379.972 380 379.955 363.279 363.251
          363.251 363.251 363.251 363.251 363.251 363.251 363.251 363.251 363.251 363.251 363.251 363.175
          363.175 363.175 363.175 363.175 363.175 363.175 363.175 363.223 379.971 380 379.955 363.204
          363.176 363.176 363.176 363.176 363.176 363.176 363.176 363.176 363.176 363.176 363.176 363.176
          363.1 363.1 363.1 363.1 363.1 363.1 363.1 363.1 363.149 379.971 380 379.955
          363.129 363.101 363.101 363.101 363.101 363.101 363.101 363.101 363.101 363.101 363.101 363.101
          363.101 363.025 363.025 363.025 363.025 363.025 363.025 363.025 363.025 363.068 379.949 379.971
          379.934 363.047 363.026 363.026 363.026 363.026 363.026 363.026 363.026 363.026 363.026 363.026
          363.026 363.026 362.95 362.95 362.95 362.95 362.95 362.95 362.95 362.95 362.958 362.976