<?xml version="1.0"?>
<VTKFile type="UnstructuredGrid" version="0.1" byte_order="LittleEndian">
  <UnstructuredGrid>
    <Piece NumberOfCells="384" NumberOfPoints="425">
      <PointData Scalars="pressure_l">
        <DataArray type="Float32" Name="pressure_l" NumberOfComponents="1" format="ascii">
          2.63767e+07 2.63825e+07 2.63563e+07 2.63583e+07 2.63856e+07 2.63612e+07 2.63884e+07 2.63638e+07 2.6391e+07 2.63664e+07 2.63935e+07 2.63689e+07
          2.6396e+07 2.63714e+07 2.63984e+07 2.63738e+07 2.64009e+07 2.63763e+07 2.64033e+07 2.63787e+07 2.64057e+07 2.63811e+07 2.64081e+07 2.63835e+07
          2.64106e+07 2.6386e+07 2.6413e+07 2.63884e+07 2.64154e+07 2.63908e+07 2.64178e+07 2.63932e+07 2.64203e+07 2.63957e+07 2.64227e+07 2.63981e+07
          2.64252e+07 2.64006e+07 2.64276e+07 2.6403e+07 2.643e+07 2.64055e+07 2.64324e+07 2.64079e+07 2.64345e+07 2.64101e+07 2.64361e+07 2.6412e+07
          2.64367e+07 2.64127e+07 2.63322e+07 2.63344e+07 2.63369e+07 2.63394e+07 2.63419e+07 2.63444e+07 2.63468e+07 2.63493e+07 2.63517e+07 2.63541e+07
          2.63565e+07 2.63589e+07 2.63613e+07 2.63638e+07 2.63662e+07 2.63686e+07 2.6371e+07 2.63735e+07 2.63759e+07 2.63784e+07 2.63809e+07 2.63835e+07
          2.6386e+07 2.63887e+07 2.63918e+07 2.63079e+07 2.63102e+07 2.63126e+07 2.6315e+07 2.63174e+07 2.63198e+07 2.63223e+07 2.63247e+07 2.63271e+07
          2.63295e+07 2.63319e+07 2.63343e+07 2.63367e+07 2.63391e+07 2.63415e+07 2.6344e+07 2.63464e+07 2.63488e+07 2.63513e+07 2.63538e+07 2.63564e+07
          2.6359e+07 2.63619e+07 2.63652e+07 2.63716e+07 2.62836e+07 2.62859e+07 2.62882e+07 2.62905e+07 2.62929e+07 2.62953e+07 2.62977e+07 2.63001e+07
          2.63025e+07 2.63049e+07 2.63073e+07 2.63097e+07 2.63121e+07 2.63145e+07 2.63169e+07 2.63193e+07 2.63217e+07 2.63242e+07 2.63266e+07 2.63291e+07
          2.63317e+07 2.63344e+07 2.63374e+07 2.6341e+07 2.63482e+07 2.62592e+07 2.62615e+07 2.62638e+07 2.62661e+07 2.62684e+07 2.62708e+07 2.62732e+07
          2.62756e+07 2.62779e+07 2.62803e+07 2.62827e+07 2.62851e+07 2.62875e+07 2.62899e+07 2.62923e+07 2.62947e+07 2.62971e+07 2.62995e+07 2.63019e+07
          2.63044e+07 2.63069e+07 2.63096e+07 2.63125e+07 2.63158e+07 2.63227e+07 2.62349e+07 2.62371e+07 2.62393e+07 2.62416e+07 2.62439e+07 2.62463e+07
          2.62486e+07 2.6251e+07 2.62534e+07 2.62557e+07 2.62581e+07 2.62605e+07 2.62629e+07 2.62652e+07 2.62676e+07 2.627e+07 2.62724e+07 2.62748e+07
          2.62772e+07 2.62796e+07 2.6282e+07 2.62845e+07 2.62871e+07 2.62898e+07 2.62937e+07 2.62105e+07 2.62127e+07 2.62149e+07 2.62171e+07 2.62194e+07
          2.62217e+07 2.62241e+07 2.62264e+07 2.62288e+07 2.62311e+07 2.62335e+07 2.62359e+07 2.62382e+07 2.62406e+07 2.6243e+07 2.62453e+07 2.62477e+07
          2.62501e+07 2.62524e+07 2.62548e+07 2.62571e+07 2.62594e+07 2.62615e+07 2.62634e+07 2.62641e+07 2.61861e+07 2.61882e+07 2.61904e+07 2.61926e+07
          2.61949e+07 2.61972e+07 2.61995e+07 2.62018e+07 2.62042e+07 2.62065e+07 2.62089e+07 2.62112e+07 2.62136e+07 2.6216e+07 2.62183e+07 2.62207e+07
          2.6223e+07 2.62254e+07 2.62277e+07 2.623e+07 2.62322e+07 2.62344e+07 2.62362e+07 2.62376e+07 2.62381e+07 2.61618e+07 2.61638e+07 2.6166e+07
          2.61682e+07 2.61704e+07 2.61727e+07 2.6175e+07 2.61773e+07 2.61796e+07 2.61819e+07 2.61842e+07 2.61866e+07 2.61889e+07 2.61912e+07 2.61935e+07
          2.61958e+07 2.61981e+07 2.62003e+07 2.62026e+07 2.62047e+07 2.62067e+07 2.62086e+07 2.62102e+07 2.62113e+07 2.62117e+07 2.61375e+07 2.61396e+07
          2.61417e+07 2.61439e+07 2.61461e+07 2.61483e+07 2.61505e+07 2.61528e+07 2.6155e+07 2.61573e+07 2.61596e+07 2.61618e+07 2.61641e+07 2.61663e+07
          2.61686e+07 2.61707e+07 2.61729e+07 2.6175e+07 2.6177e+07 2.61789e+07 2.61807e+07 2.61822e+07 2.61835e+07 2.61843e+07 2.61846e+07 2.61132e+07
          2.61153e+07 2.61174e+07 2.61195e+07 2.61217e+07 2.61239e+07 2.61261e+07 2.61283e+07 2.61305e+07 2.61327e+07 2.61349e+07 2.61371e+07 2.61393e+07
          2.61415e+07 2.61436e+07 2.61457e+07 2.61478e+07 2.61497e+07 2.61516e+07 2.61533e+07 2.61549e+07 2.61562e+07 2.61572e+07 2.61578e+07 2.61581e+07
          2.60888e+07 2.6091e+07 2.60931e+07 2.60952e+07 2.60973e+07 2.60994e+07 2.61016e+07 2.61037e+07 2.61059e+07 2.61081e+07 2.61102e+07 2.61124e+07
          2.61145e+07 2.61167e+07 2.61187e+07 2.61207e+07 2.61227e+07 2.61245e+07 2.61263e+07 2.61278e+07 2.61292e+07 2.61304e+07 2.61313e+07 2.61318e+07
          2.6132e+07 2.60645e+07 2.60667e+07 2.60688e+07 2.60708e+07 2.60729e+07 2.6075e+07 2.60771e+07 2.60792e+07 2.60813e+07 2.60835e+07 2.60856e+07
          2.60877e+07 2.60898e+07 2.60919e+07 2.60939e+07 2.60958e+07 2.60977e+07 2.60995e+07 2.61011e+07 2.61026e+07 2.61039e+07 2.61049e+07 2.61057e+07
          2.61062e+07 2.61064e+07 2.60402e+07 2.60425e+07 2.60445e+07 2.60465e+07 2.60485e+07 2.60505e+07 2.60525e+07 2.60546e+07 2.60567e+07 2.60588e+07
          2.6061e+07 2.6063e+07 2.60651e+07 2.60671e+07 2.60691e+07 2.6071e+07 2.60728e+07 2.60745e+07 2.60761e+07 2.60775e+07 2.60787e+07 2.60797e+07
          2.60804e+07 2.60809e+07 2.6081e+07 2.60162e+07 2.60187e+07 2.60203e+07 2.60221e+07 2.6024e+07 2.6026e+07 2.6028e+07 2.60301e+07 2.60321e+07
          2.60342e+07 2.60363e+07 2.60384e+07 2.60404e+07 2.60424e+07 2.60444e+07 2.60463e+07 2.6048e+07 2.60497e+07 2.60512e+07 2.60526e+07 2.60538e+07
          2.60547e+07 2.60554e+07 2.60558e+07 2.6056e+07 2.59965e+07 2.59946e+07 2.59958e+07 2.59975e+07 2.59994e+07 2.60014e+07 2.60034e+07 2.60055e+07
          2.60075e+07 2.60096e+07 2.60117e+07 2.60138e+07 2.60158e+07 2.60178e+07 2.60198e+07 2.60216e+07 2.60234e+07 2.6025e+07 2.60266e+07 2.60279e+07
          2.60291e+07 2.603e+07 2.60307e+07 2.60311e+07 2.60312e+07
        </DataArray>
        <DataArray type="Float32" Name="pressure_g" NumberOfComponents="1" format="ascii">
          2.63867e+07 2.63925e+07 2.63663e+07 2.63683e+07 2.63956e+07 2.63712e+07 2.63984e+07 2.63738e+07 2.6401e+07 2.63764e+07 2.64035e+07 2.63789e+07
          2.6406e+07 2.63814e+07 2.64084e+07 2.63838e+07 2.64109e+07 2.63863e+07 2.64133e+07 2.63887e+07 2.64157e+07 2.63911e+07 2.64181e+07 2.63935e+07
          2.64206e+07 2.6396e+07 2.6423e+07 2.63984e+07 2.64254e+07 2.64008e+07 2.64278e+07 2.64032e+07 2.64303e+07 2.64057e+07 2.64327e+07 2.64081e+07
          2.64352e+07 2.64106e+07 2.64376e+07 2.6413e+07 2.644e+07 2.64155e+07 2.64424e+07 2.64179e+07 2.64445e+07 2.64201e+07 2.64461e+07 2.6422e+07
          2.64467e+07 2.64227e+07 2.63422e+07 2.63444e+07 2.63469e+07 2.63494e+07 2.63519e+07 2.63544e+07 2.63568e+07 2.63593e+07 2.63617e+07 2.63641e+07
          2.63665e+07 2.63689e+07 2.63713e+07 2.63738e+07 2.63762e+07 2.63786e+07 2.6381e+07 2.63835e+07 2.63859e+07 2.63884e+07 2.63909e+07 2.63935e+07
          2.6396e+07 2.63987e+07 2.64021e+07 2.63179e+07 2.63202e+07 2.63226e+07 2.6325e+07 2.63274e+07 2.63298e+07 2.63323e+07 2.63347e+07 2.63371e+07
          2.63395e+07 2.63419e+07 2.63443e+07 2.63467e+07 2.63491e+07 2.63515e+07 2.6354e+07 2.63564e+07 2.63588e+07 2.63613e+07 2.63638e+07 2.63664e+07
          2.6369e+07 2.63719e+07 2.63752e+07 2.63821e+07 2.62936e+07 2.62959e+07 2.62982e+07 2.63005e+07 2.63029e+07 2.63053e+07 2.63077e+07 2.63101e+07
          2.63125e+07 2.63149e+07 2.63173e+07 2.63197e+07 2.63221e+07 2.63245e+07 2.63269e+07 2.63293e+07 2.63317e+07 2.63342e+07 2.63366e+07 2.63391e+07
          2.63417e+07 2.63444e+07 2.63474e+07 2.6351e+07 2.63587e+07 2.62692e+07 2.62715e+07 2.62738e+07 2.62761e+07 2.62784e+07 2.62808e+07 2.62832e+07
          2.62856e+07 2.62879e+07 2.62903e+07 2.62927e+07 2.62951e+07 2.62975e+07 2.62999e+07 2.63023e+07 2.63047e+07 2.63071e+07 2.63095e+07 2.63119e+07
          2.63144e+07 2.63169e+07 2.63196e+07 2.63225e+07 2.63258e+07 2.63332e+07 2.62449e+07 2.62471e+07 2.62493e+07 2.62516e+07 2.62539e+07 2.62563e+07
          2.62586e+07 2.6261e+07 2.62634e+07 2.62657e+07 2.62681e+07 2.62705e+07 2.62729e+07 2.62752e+07 2.62776e+07 2.628e+07 2.62824e+07 2.62848e+07
          2.62872e+07 2.62896e+07 2.6292e+07 2.62945e+07 2.62971e+07 2.62998e+07 2.63039e+07 2.62205e+07 2.62227e+07 2.62249e+07 2.62271e+07 2.62294e+07
          2.62317e+07 2.62341e+07 2.62364e+07 2.62388e+07 2.62411e+07 2.62435e+07 2.62459e+07 2.62482e+07 2.62506e+07 2.6253e+07 2.62553e+07 2.62577e+07
          2.62601e+07 2.62624e+07 2.62648e+07 2.62671e+07 2.62694e+07 2.62715e+07 2.62734e+07 2.62741e+07 2.61961e+07 2.61982e+07 2.62004e+07 2.62026e+07
          2.62049e+07 2.62072e+07 2.62095e+07 2.62118e+07 2.62142e+07 2.62165e+07 2.62189e+07 2.62212e+07 2.62236e+07 2.6226e+07 2.62283e+07 2.62307e+07
          2.6233e+07 2.62354e+07 2.62377e+07 2.624e+07 2.62422e+07 2.62444e+07 2.62462e+07 2.62476e+07 2.62481e+07 2.61718e+07 2.61738e+07 2.6176e+07
          2.61782e+07 2.61804e+07 2.61827e+07 2.6185e+07 2.61873e+07 2.61896e+07 2.61919e+07 2.61942e+07 2.61966e+07 2.61989e+07 2.62012e+07 2.62035e+07
          2.62058e+07 2.62081e+07 2.62103e+07 2.62126e+07 2.62147e+07 2.62167e+07 2.62186e+07 2.62202e+07 2.62213e+07 2.62217e+07 2.61475e+07 2.61496e+07
          2.61517e+07 2.61539e+07 2.61561e+07 2.61583e+07 2.61605e+07 2.61628e+07 2.6165e+07 2.61673e+07 2.61696e+07 2.61718e+07 2.61741e+07 2.61763e+07
          2.61786e+07 2.61807e+07 2.61829e+07 2.6185e+07 2.6187e+07 2.61889e+07 2.61907e+07 2.61922e+07 2.61935e+07 2.61943e+07 2.61946e+07 2.61232e+07
          2.61253e+07 2.61274e+07 2.61295e+07 2.61317e+07 2.61339e+07 2.61361e+07 2.61383e+07 2.61405e+07 2.61427e+07 2.61449e+07 2.61471e+07 2.61493e+07
          2.61515e+07 2.61536e+07 2.61557e+07 2.61578e+07 2.61597e+07 2.61616e+07 2.61633e+07 2.61649e+07 2.61662e+07 2.61672e+07 2.61678e+07 2.61681e+07
          2.60988e+07 2.6101e+07 2.61031e+07 2.61052e+07 2.61073e+07 2.61094e+07 2.61116e+07 2.61137e+07 2.61159e+07 2.61181e+07 2.61202e+07 2.61224e+07
          2.61245e+07 2.61267e+07 2.61287e+07 2.61307e+07 2.61327e+07 2.61345e+07 2.61363e+07 2.61378e+07 2.61392e+07 2.61404e+07 2.61413e+07 2.61418e+07
          2.6142e+07 2.60745e+07 2.60767e+07 2.60788e+07 2.60808e+07 2.60829e+07 2.6085e+07 2.60871e+07 2.60892e+07 2.60913e+07 2.60935e+07 2.60956e+07
          2.60977e+07 2.60998e+07 2.61019e+07 2.61039e+07 2.61058e+07 2.61077e+07 2.61095e+07 2.61111e+07 2.61126e+07 2.61139e+07 2.61149e+07 2.61157e+07
          2.61162e+07 2.61164e+07 2.60502e+07 2.60525e+07 2.60545e+07 2.60565e+07 2.60585e+07 2.60605e+07 2.60625e+07 2.60646e+07 2.60667e+07 2.60688e+07
          2.6071e+07 2.6073e+07 2.60751e+07 2.60771e+07 2.60791e+07 2.6081e+07 2.60828e+07 2.60845e+07 2.60861e+07 2.60875e+07 2.60887e+07 2.60897e+07
          2.60904e+07 2.60909e+07 2.6091e+07 2.60262e+07 2.60287e+07 2.60303e+07 2.60321e+07 2.6034e+07 2.6036e+07 2.6038e+07 2.60401e+07 2.60421e+07
          2.60442e+07 2.60463e+07 2.60484e+07 2.60504e+07 2.60524e+07 2.60544e+07 2.60563e+07 2.6058e+07 2.60597e+07 2.60612e+07 2.60626e+07 2.60638e+07
          2.60647e+07 2.60654e+07 2.60658e+07 2.6066e+07 2.60065e+07 2.60046e+07 2.60058e+07 2.60075e+07 2.60094e+07 2.60114e+07 2.60134e+07 2.60155e+07
          2.60175e+07 2.60196e+07 2.60217e+07 2.60238e+07 2.60258e+07 2.60278e+07 2.60298e+07 2.60316e+07 2.60334e+07 2.6035e+07 2.60366e+07 2.60379e+07
          2.60391e+07 2.604e+07 2.60407e+07 2.60411e+07 2.60412e+07
        </DataArray>
        <DataArray type="Float32" Name="density_l" NumberOfComponents="1" format="ascii">
          1003.43 1003.43 1003.42 1003.42 1003.43 1003.42 1003.43 1003.42 1003.43 1003.42 1003.43 1003.42
          1003.43 1003.42 1003.43 1003.42 1003.44 1003.43 1003.44 1003.43 1003.44 1003.43 1003.44 1003.43
          1003.44 1003.43 1003.44 1003.43 1003.44 1003.43 1003.44 1003.43 1003.44 1003.43 1003.44 1003.43
          1003.45 1003.44 1003.45 1003.44 1003.45 1003.44 1003.45 1003.44 1003.45 1003.44 1003.45 1003.44
          1003.45 1003.44 1003.41 1003.41 1003.41 1003.41 1003.41 1003.41 1003.41 1003.41 1003.42 1003.42
          1003.42 1003.42 1003.42 1003.42 1003.42 1003.42 1003.42 1003.42 1003.43 1003.43 1003.43 1003.43
          1003.43 1003.43 1003.43 1003.4 1003.4 1003.4 1003.4 1003.4 1003.4 1003.4 1003.4 1003.41
          1003.41 1003.41 1003.41 1003.41 1003.41 1003.41 1003.41 1003.41 1003.41 1003.42 1003.42 1003.42
          1003.42 1003.42 1003.42 1003.42 1003.39 1003.39 1003.39 1003.39 1003.39 1003.39 1003.39 1003.39
          1003.39 1003.4 1003.4 1003.4 1003.4 1003.4 1003.4 1003.4 1003.4 1003.4 1003.41 1003.41
          1003.41 1003.41 1003.41 1003.41 1003.41 1003.38 1003.38 1003.38 1003.38 1003.38 1003.38 1003.38
          1003.38 1003.38 1003.39 1003.39 1003.39 1003.39 1003.39 1003.39 1003.39 1003.39 1003.39 1003.39
          1003.4 1003.4 1003.4 1003.4 1003.4 1003.4 1003.37 1003.37 1003.37 1003.37 1003.37 1003.37
          1003.37 1003.37 1003.37 1003.38 1003.38 1003.38 1003.38 1003.38 1003.38 1003.38 1003.38 1003.38
          1003.38 1003.39 1003.39 1003.39 1003.39 1003.39 1003.39 1003.36 1003.36 1003.36 1003.36 1003.36
          1003.36 1003.36 1003.36 1003.36 1003.37 1003.37 1003.37 1003.37 1003.37 1003.37 1003.37 1003.37
          1003.37 1003.37 1003.38 1003.38 1003.38 1003.38 1003.38 1003.38 1003.35 1003.35 1003.35 1003.35
          1003.35 1003.35 1003.35 1003.35 1003.35 1003.36 1003.36 1003.36 1003.36 1003.36 1003.36 1003.36
          1003.36 1003.36 1003.36 1003.36 1003.37 1003.37 1003.37 1003.37 1003.37 1003.34 1003.34 1003.34
          1003.34 1003.34 1003.34 1003.34 1003.34 1003.34 1003.34 1003.35 1003.35 1003.35 1003.35 1003.35
          1003.35 1003.35 1003.35 1003.35 1003.35 1003.36 1003.36 1003.36 1003.36 1003.36 1003.33 1003.33
          1003.33 1003.33 1003.33 1003.33 1003.33 1003.33 1003.33 1003.33 1003.34 1003.34 1003.34 1003.34
          1003.34 1003.34 1003.34 1003.34 1003.34 1003.34 1003.34 1003.35 1003.35 1003.35 1003.35 1003.32
          1003.32 1003.32 1003.32 1003.32 1003.32 1003.32 1003.32 1003.32 1003.32 1003.33 1003.33 1003.33
          1003.33 1003.33 1003.33 1003.33 1003.33 1003.33 1003.33 1003.33 1003.33 1003.33 1003.33 1003.33
          1003.31 1003.31 1003.31 1003.31 1003.31 1003.31 1003.31 1003.31 1003.31 1003.31 1003.32 1003.32
          1003.32 1003.32 1003.32 1003.32 1003.32 1003.32 1003.32 1003.32 1003.32 1003.32 1003.32 1003.32
          1003.32 1003.3 1003.3 1003.3 1003.3 1003.3 1003.3 1003.3 1003.3 1003.3 1003.3 1003.3
          1003.31 1003.31 1003.31 1003.31 1003.31 1003.31 1003.31 1003.31 1003.31 1003.31 1003.31 1003.31
          1003.31 1003.31 1003.29 1003.29 1003.29 1003.29 1003.29 1003.29 1003.29 1003.29 1003.29 1003.29
          1003.29 1003.3 1003.3 1003.3 1003.3 1003.3 1003.3 1003.3 1003.3 1003.3 1003.3 1003.3
          1003.3 1003.3 1003.3 1003.28 1003.28 1003.28 1003.28 1003.28 1003.28 1003.28 1003.28 1003.28
          1003.28 1003.28 1003.29 1003.29 1003.29 1003.29 1003.29 1003.29 1003.29 1003.29 1003.29 1003.29
          1003.29 1003.29 1003.29 1003.29 1003.27 1003.27 1003.27 1003.27 1003.27 1003.27 1003.27 1003.27
          1003.27 1003.27 1003.27 1003.28 1003.28 1003.28 1003.28 1003.28 1003.28 1003.28 1003.28 1003.28
          1003.28 1003.28 1003.28 1003.28 1003.28
        </DataArray>
        <DataArray type="Float32" Name="density_g" NumberOfComponents="1" format="ascii">
          283.842 283.905 283.623 283.645 283.939 283.675 283.968 283.704 283.996 283.732 284.023 283.759
          284.05 283.785 284.076 283.812 284.103 283.838 284.129 283.864 284.155 283.89 284.181 283.916
          284.207 283.942 284.233 283.968 284.259 283.994 284.285 284.02 284.311 284.046 284.337 284.073
          284.364 284.099 284.39 284.125 284.416 284.152 284.441 284.178 284.464 284.202 284.481 284.222
          284.487 284.231 283.363 283.387 283.414 283.441 283.468 283.495 283.521 283.547 283.573 283.599
          283.625 283.651 283.677 283.703 283.729 283.755 283.781 283.808 283.834 283.861 283.888 283.915
          283.943 283.973 284.036 283.102 283.127 283.152 283.178 283.204 283.231 283.257 283.283 283.309
          283.335 283.36 283.386 283.412 283.438 283.464 283.49 283.516 283.543 283.569 283.596 283.624
          283.652 283.683 283.729 283.821 282.84 282.865 282.89 282.915 282.941 282.967 282.993 283.018
          283.044 283.07 283.096 283.121 283.147 283.173 283.199 283.225 283.251 283.277 283.304 283.331
          283.358 283.388 283.42 283.471 283.57 282.578 282.603 282.627 282.652 282.678 282.703 282.729
          282.754 282.78 282.805 282.831 282.857 282.882 282.908 282.934 282.96 282.986 283.012 283.038
          283.064 283.092 283.12 283.151 283.199 283.296 282.316 282.34 282.365 282.389 282.414 282.439
          282.464 282.49 282.515 282.541 282.566 282.592 282.617 282.643 282.669 282.694 282.72 282.746
          282.772 282.798 282.824 282.85 282.878 282.909 282.98 282.054 282.078 282.101 282.126 282.15
          282.175 282.2 282.225 282.251 282.276 282.301 282.327 282.352 282.378 282.404 282.429 282.454
          282.48 282.505 282.531 282.556 282.58 282.603 282.623 282.637 281.792 281.814 281.838 281.862
          281.886 281.911 281.936 281.961 281.986 282.011 282.037 282.062 282.087 282.113 282.138 282.164
          282.189 282.214 282.239 282.264 282.288 282.311 282.331 282.345 282.351 281.53 281.552 281.575
          281.599 281.623 281.647 281.672 281.697 281.722 281.747 281.772 281.797 281.822 281.847 281.871
          281.896 281.921 281.945 281.969 281.992 282.014 282.034 282.051 282.062 282.067 281.269 281.291
          281.314 281.337 281.361 281.385 281.409 281.433 281.457 281.482 281.506 281.531 281.555 281.579
          281.603 281.626 281.65 281.672 281.694 281.714 281.733 281.75 281.763 281.772 281.775 281.007
          281.03 281.053 281.076 281.099 281.122 281.146 281.169 281.193 281.217 281.241 281.265 281.288
          281.312 281.335 281.357 281.379 281.4 281.42 281.439 281.455 281.47 281.481 281.488 281.49
          280.745 280.768 280.791 280.814 280.836 280.859 280.882 280.905 280.929 280.952 280.975 280.999
          281.022 281.044 281.067 281.088 281.109 281.129 281.148 281.165 281.18 281.192 281.202 281.208
          281.21 280.484 280.507 280.529 280.552 280.574 280.596 280.618 280.641 280.664 280.687 280.71
          280.733 280.756 280.778 280.799 280.82 280.84 280.859 280.877 280.893 280.907 280.918 280.927
          280.932 280.934 280.222 280.247 280.269 280.289 280.311 280.332 280.355 280.377 280.4 280.422
          280.445 280.468 280.49 280.512 280.533 280.553 280.573 280.591 280.608 280.623 280.636 280.647
          280.654 280.659 280.661 279.963 279.991 280.008 280.027 280.047 280.069 280.09 280.113 280.135
          280.158 280.18 280.202 280.224 280.246 280.267 280.287 280.306 280.324 280.341 280.355 280.368
          280.378 280.385 280.39 280.392 279.752 279.732 279.745 279.763 279.783 279.804 279.826 279.848
          279.87 279.893 279.915 279.938 279.96 279.981 280.002 280.022 280.041 280.059 280.075 280.089
          280.102 280.112 280.119 280.124 280.125
        </DataArray>
        <DataArray type="Float32" Name="saturation_l" NumberOfComponents="1" format="ascii">
          1 1 1 1 1 1 1 1 1 1 1 1
          1 1 1 1 1 1 1 1 1 1 1 1
          1 1 1 1 1 1 1 1 1 1 1 1
          1 1 1 1 1 1 1 1 1 1 1 1
          1 1 1 1 1 1 1 1 1 1 1 1
          1 1 1 1 1 1 1 1 1 1 1 1
          1 1 0.960647 1 1 1 1 1 1 1 1 1
          1 1 1 1 1 1 1 1 1 1 1 1
          1 1 1 0.919276 1 1 1 1 1 1 1 1
          1 1 1 1 1 1 1 1 1 1 1 1
          1 1 1 1 0.917125 1 1 1 1 1 1 1
          1 1 1 1 1 1 1 1 1 1 1 1
          1 1 1 1 1 0.916899 1 1 1 1 1 1
          1 1 1 1 1 1 1 1 1 1 1 1
          1 1 1 1 1 1 0.955851 1 1 1 1 1
          1 1 1 1 1 1 1 1 1 1 1 1
          1 1 1 1 1 1 1 1 1 1 1 1
          1 1 1 1 1 1 1 1 1 1 1 1
          1 1 1 1 1 1 1 1 1 1 1 1
          1 1 1 1 1 1 1 1 1 1 1 1
          1 1 1 1 1 1 1 1 1 1 1 1
          1 1 1 1 1 1 1 1 1 1 1 1
          1 1 1 1 1 1 1 1 1 1 1 1
          1 1 1 1 1 1 1 1 1 1 1 1
          1 1 1 1 1 1 1 1 1 1 1 1
          1 1 1 1 1 1 1 1 1 1 1 1
          1 1 1 1 1 1 1 1 1 1 1 1
          1 1 1 1 1 1 1 1 1 1 1 1
          1 1 1 1 1 1 1 1 1 1 1 1
          1 1 1 1 1 1 1 1 1 1 1 1
          1 1 1 1 1 1 1 1 1 1 1 1
          1 1 1 1 1 1 1 1 1 1 1 1
          1 1 1 1 1 1 1 1 1 1 1 1
          1 1 1 1 1 1 1 1 1 1 1 1
          1 1 1 1 1 1 1 1 1 1 1 1
          1 1 1 1 1
        </DataArray>
        <DataArray type="Float32" Name="saturation_g" NumberOfComponents="1" format="ascii">
          0 0 0 0 0 0 0 0 0 0 0 0
          0 0 0 0 0 0 0 0 0 0 0 0
          0 0 0 0 0 0 0 0 0 0 0 0
          0 0 0 0 0 0 0 0 0 0 0 0
          0 0 0 0 0 0 0 0 0 0 0 0
          0 0 0 0 0 0 0 0 0 0 0 0
          0 0 0.0393528 0 0 0 0 0 0 0 0 0
          0 0 0 0 0 0 0 0 0 0 0 0
          0 0 0 0.0807245 0 0 0 0 0 0 0 0
          0 0 0 0 0 0 0 0 0 0 0 0
          0 0 0 0 0.0828746 0 0 0 0 0 0 0
          0 0 0 0 0 0 0 0 0 0 0 0
          0 0 0 0 0 0.0831012 0 0 0 0 0 0
          0 0 0 0 0 0 0 0 0 0 0 0
          0 0 0 0 0 0 0.044149 0 0 0 0 0
          0 0 0 0 0 0 0 0 0 0 0 0
          0 0 0 0 0 0 0 0 0 0 0 0
          0 0 0 0 0 0 0 0 0 0 0 0
          0 0 0 0 0 0 0 0 0 0 0 0
          0 0 0 0 0 0 0 0 0 0 0 0
          0 0 0 0 0 0 0 0 0 0 0 0
          0 0 0 0 0 0 0 0 0 0 0 0
          0 0 0 0 0 0 0 0 0 0 0 0
          0 0 0 0 0 0 0 0 0 0 0 0
          0 0 0 0 0 0 0 0 0 0 0 0
          0 0 0 0 0 0 0 0 0 0 0 0
          0 0 0 0 0 0 0 0 0 0 0 0
          0 0 0 0 0 0 0 0 0 0 0 0
          0 0 0 0 0 0 0 0 0 0 0 0
          0 0 0 0 0 0 0 0 0 0 0 0
          0 0 0 0 0 0 0 0 0 0 0 0
          0 0 0 0 0 0 0 0 0 0 0 0
          0 0 0 0 0 0 0 0 0 0 0 0
          0 0 0 0 0 0 0 0 0 0 0 0
          0 0 0 0 0 0 0 0 0 0 0 0
          0 0 0 0 0
        </DataArray>
        <DataArray type="Float32" Name="relativePerm_l" NumberOfComponents="1" format="ascii">
          1 1 1 1 1 1 1 1 1 1 1 1
          1 1 1 1 1 1 1 1 1 1 1 1
          1 1 1 1 1 1 1 1 1 1 1 1
          1 1 1 1 1 1 1 1 1 1 1 1
          1 1 1 1 1 1 1 1 1 1 1 1
          1 1 1 1 1 1 1 1 1 1 1 1
          1 1 0.817284 1 1 1 1 1 1 1 1 1
          1 1 1 1 1 1 1 1 1 1 1 1
          1 1 1 0.653463 1 1 1 1 1 1 1 1
          1 1 1 1 1 1 1 1 1 1 1 1
          1 1 1 1 0.645684 1 1 1 1 1 1 1
          1 1 1 1 1 1 1 1 1 1 1 1
          1 1 1 1 1 0.644869 1 1 1 1 1 1
          1 1 1 1 1 1 1 1 1 1 1 1
          1 1 1 1 1 1 0.796865 1 1 1 1 1
          1 1 1 1 1 1 1 1 1 1 1 1
          1 1 1 1 1 1 1 1 1 1 1 1
          1 1 1 1 1 1 1 1 1 1 1 1
          1 1 1 1 1 1 1 1 1 1 1 1
          1 1 1 1 1 1 1 1 1 1 1 1
          1 1 1 1 1 1 1 1 1 1 1 1
          1 1 1 1 1 1 1 1 1 1 1 1
          1 1 1 1 1 1 1 1 1 1 1 1
          1 1 1 1 1 1 1 1 1 1 1 1
          1 1 1 1 1 1 1 1 1 1 1 1
          1 1 1 1 1 1 1 1 1 1 1 1
          1 1 1 1 1 1 1 1 1 1 1 1
          1 1 1 1 1 1 1 1 1 1 1 1
          1 1 1 1 1 1 1 1 1 1 1 1
          1 1 1 1 1 1 1 1 1 1 1 1
          1 1 1 1 1 1 1 1 1 1 1 1
          1 1 1 1 1 1 1 1 1 1 1 1
          1 1 1 1 1 1 1 1 1 1 1 1
          1 1 1 1 1 1 1 1 1 1 1 1
          1 1 1 1 1 1 1 1 1 1 1 1
          1 1 1 1 1
        </DataArray>
        <DataArray type="Float32" Name="relativePerm_g" NumberOfComponents="1" format="ascii">
          0 0 0 0 0 0 0 0 0 0 0 0
          0 0 0 0 0 0 0 0 0 0 0 0
          0 0 0 0 0 0 0 0 0 0 0 0
          0 0 0 0 0 0 0 0 0 0 0 0
          0 0 0 0 0 0 0 0 0 0 0 0
          0 0 0 0 0 0 0 0 0 0 0 0
          0 0 0.000232205 0 0 0 0 0 0 0 0 0
          0 0 0 0 0 0 0 0 0 0 0 0
          0 0 0 0.00195116 0 0 0 0 0 0 0 0
          0 0 0 0 0 0 0 0 0 0 0 0
          0 0 0 0 0.00210827 0 0 0 0 0 0 0
          0 0 0 0 0 0 0 0 0 0 0 0
          0 0 0 0 0 0.00212529 0 0 0 0 0 0
          0 0 0 0 0 0 0 0 0 0 0 0
          0 0 0 0 0 0 0.000326868 0 0 0 0 0
          0 0 0 0 0 0 0 0 0 0 0 0
          0 0 0 0 0 0 0 0 0 0 0 0
          0 0 0 0 0 0 0 0 0 0 0 0
          0 0 0 0 0 0 0 0 0 0 0 0
          0 0 0 0 0 0 0 0 0 0 0 0
          0 0 0 0 0 0 0 0 0 0 0 0
          0 0 0 0 0 0 0 0 0 0 0 0
          0 0 0 0 0 0 0 0 0 0 0 0
          0 0 0 0 0 0 0 0 0 0 0 0
          0 0 0 0 0 0 0 0 0 0 0 0
          0 0 0 0 0 0 0 0 0 0 0 0
          0 0 0 0 0 0 0 0 0 0 0 0
          0 0 0 0 0 0 0 0 0 0 0 0
          0 0 0 0 0 0 0 0 0 0 0 0
          0 0 0 0 0 0 0 0 0 0 0 0
          0 0 0 0 0 0 0 0 0 0 0 0
          0 0 0 0 0 0 0 0 0 0 0 0
          0 0 0 0 0 0 0 0 0 0 0 0
          0 0 0 0 0 0 0 0 0 0 0 0
          0 0 0 0 0 0 0 0 0 0 0 0
          0 0 0 0 0
        </DataArray>
        <DataArray type="Float32" Name="porosity" NumberOfComponents="1" format="ascii">
          0.3 0.3 0.3 0.3 0.3 0.3 0.3 0.3 0.3 0.3 0.3 0.3
          0.3 0.3 0.3 0.3 0.3 0.3 0.3 0.3 0.3 0.3 0.3 0.3
          0.3 0.3 0.3 0.3 0.3 0.3 0.3 0.3 0.3 0.3 0.3 0.3
          0.3 0.3 0.3 0.3 0.3 0.3 0.3 0.3 0.3 0.3 0.3 0.3
          0.3 0.3 0.3 0.3 0.3 0.3 0.3 0.3 0.3 0.3 0.3 0.3
          0.3 0.3 0.3 0.3 0.3 0.3 0.3 0.3 0.3 0.3 0.3 0.3
          0.3 0.3 0.3 0.3 0.3 0.3 0.3 0.3 0.3 0.3 0.3 0.3
          0.3 0.3 0.3 0.3 0.3 0.3 0.3 0.3 0.3 0.3 0.3 0.3
          0.3 0.3 0.3 0.3 0.3 0.3 0.3 0.3 0.3 0.3 0.3 0.3
          0.3 0.3 0.3 0.3 0.3 0.3 0.3 0.3 0.3 0.3 0.3 0.3
          0.3 0.3 0.3 0.3 0.3 0.3 0.3 0.3 0.3 0.3 0.3 0.3
          0.3 0.3 0.3 0.3 0.3 0.3 0.3 0.3 0.3 0.3 0.3 0.3
          0.3 0.3 0.3 0.3 0.3 0.3 0.3 0.3 0.3 0.3 0.3 0.3
          0.3 0.3 0.3 0.3 0.3 0.3 0.3 0.3 0.3 0.3 0.3 0.3
          0.3 0.3 0.3 0.3 0.3 0.3 0.3 0.3 0.3 0.3 0.3 0.3
          0.3 0.3 0.3 0.3 0.3 0.3 0.3 0.3 0.3 0.3 0.3 0.3
          0.3 0.3 0.3 0.3 0.3 0.3 0.3 0.3 0.3 0.3 0.3 0.3
          0.3 0.3 0.3 0.3 0.3 0.3 0.3 0.3 0.3 0.3 0.3 0.3
          0.3 0.3 0.3 0.3 0.3 0.3 0.3 0.3 0.3 0.3 0.3 0.3
          0.3 0.3 0.3 0.3 0.3 0.3 0.3 0.3 0.3 0.3 0.3 0.3
          0.3 0.3 0.3 0.3 0.3 0.3 0.3 0.3 0.3 0.3 0.3 0.3
          0.3 0.3 0.3 0.3 0.3 0.3 0.3 0.3 0.3 0.3 0.3 0.3
          0.3 0.3 0.3 0.3 0.3 0.3 0.3 0.3 0.3 0.3 0.3 0.3
          0.3 0.3 0.3 0.3 0.3 0.3 0.3 0.3 0.3 0.3 0.3 0.3
          0.3 0.3 0.3 0.3 0.3 0.3 0.3 0.3 0.3 0.3 0.3 0.3
          0.3 0.3 0.3 0.3 0.3 0.3 0.3 0.3 0.3 0.3 0.3 0.3
          0.3 0.3 0.3 0.3 0.3 0.3 0.3 0.3 0.3 0.3 0.3 0.3
          0.3 0.3 0.3 0.3 0.3 0.3 0.3 0.3 0.3 0.3 0.3 0.3
          0.3 0.3 0.3 0.3 0.3 0.3 0.3 0.3 0.3 0.3 0.3 0.3
          0.3 0.3 0.3 0.3 0.3 0.3 0.3 0.3 0.3 0.3 0.3 0.3
          0.3 0.3 0.3 0.3 0.3 0.3 0.3 0.3 0.3 0.3 0.3 0.3
          0.3 0.3 0.3 0.3 0.3 0.3 0.3 0.3 0.3 0.3 0.3 0.3
          0.3 0.3 0.3 0.3 0.3 0.3 0.3 0.3 0.3 0.3 0.3 0.3
          0.3 0.3 0.3 0.3 0.3 0.3 0.3 0.3 0.3 0.3 0.3 0.3
          0.3 0.3 0.3 0.3 0.3 0.3 0.3 0.3 0.3 0.3 0.3 0.3
          0.3 0.3 0.3 0.3 0.3
        </DataArray>
        <DataArray type="Float32" Name="moleFrac_l^H2O" NumberOfComponents="1" format="ascii">
          0.998711 0.998711 0.998712 0.998712 0.998711 0.998712 0.998711 0.998712 0.998711 0.998712 0.998711 0.998712
          0.998711 0.998712 0.998711 0.998712 0.998711 0.998712 0.998711 0.998712 0.998711 0.998712 0.998711 0.998712
          0.998711 0.998712 0.998711 0.998712 0.998711 0.998712 0.998711 0.998712 0.998711 0.998712 0.998711 0.998712
          0.998711 0.998712 0.998711 0.998712 0.998711 0.998712 0.998711 0.998712 0.998711 0.998712 0.998711 0.998712
          0.998711 0.998687 0.998713 0.998713 0.998713 0.998713 0.998713 0.998713 0.998713 0.998713 0.998713 0.998713
          0.998713 0.998713 0.998713 0.998713 0.998713 0.998713 0.998713 0.998713 0.998713 0.998713 0.998713 0.998713
          0.998713 0.998671 0.997421 0.998714 0.998715 0.998715 0.998715 0.998714 0.998714 0.998714 0.998714 0.998714
          0.998714 0.998714 0.998714 0.998714 0.998714 0.998714 0.998714 0.998714 0.998714 0.998714 0.998714 0.998714
          0.998714 0.998711 0.998419 0.997423 0.998716 0.998716 0.998716 0.998716 0.998716 0.998716 0.998716 0.998716
          0.998716 0.998716 0.998716 0.998716 0.998716 0.998716 0.998716 0.998716 0.998716 0.998716 0.998716 0.998716
          0.998716 0.998716 0.998712 0.998363 0.997426 0.998717 0.998717 0.998717 0.998717 0.998717 0.998717 0.998717
          0.998717 0.998717 0.998717 0.998717 0.998717 0.998717 0.998717 0.998717 0.998717 0.998717 0.998717 0.998717
          0.998717 0.998717 0.998717 0.998713 0.998388 0.997428 0.998718 0.998718 0.998718 0.998718 0.998718 0.998718
          0.998718 0.998718 0.998718 0.998718 0.998718 0.998718 0.998718 0.998718 0.998718 0.998718 0.998718 0.998718
          0.998718 0.998718 0.998718 0.998718 0.998718 0.998667 0.997431 0.998719 0.998719 0.998719 0.998719 0.998719
          0.998719 0.998719 0.998719 0.998719 0.998719 0.998719 0.998719 0.998719 0.998719 0.998719 0.998719 0.998719
          0.998719 0.998719 0.998719 0.998719 0.998719 0.998719 0.998718 0.998563 0.99872 0.99872 0.99872 0.99872
          0.99872 0.99872 0.99872 0.99872 0.99872 0.99872 0.99872 0.99872 0.99872 0.99872 0.99872 0.99872
          0.99872 0.99872 0.99872 0.99872 0.99872 0.99872 0.99872 0.99872 0.99872 0.998722 0.998722 0.998722
          0.998722 0.998722 0.998722 0.998722 0.998722 0.998722 0.998722 0.998722 0.998722 0.998722 0.998722 0.998722
          0.998722 0.998722 0.998722 0.998722 0.998722 0.998722 0.998722 0.998722 0.998722 0.998722 0.998723 0.998723
          0.998723 0.998723 0.998723 0.998723 0.998723 0.998723 0.998723 0.998723 0.998723 0.998723 0.998723 0.998723
          0.998723 0.998723 0.998723 0.998723 0.998723 0.998723 0.998723 0.998723 0.998723 0.998723 0.998723 0.998724
          0.998724 0.998724 0.998724 0.998724 0.998724 0.998724 0.998724 0.998724 0.998724 0.998724 0.998724 0.998724
          0.998724 0.998724 0.998724 0.998724 0.998724 0.998724 0.998724 0.998724 0.998724 0.998724 0.998724 0.998724
          0.998725 0.998725 0.998725 0.998725 0.998725 0.998725 0.998725 0.998725 0.998725 0.998725 0.998725 0.998725
          0.998725 0.998725 0.998725 0.998725 0.998725 0.998725 0.998725 0.998725 0.998725 0.998725 0.998725 0.998725
          0.998725 0.998726 0.998726 0.998726 0.998726 0.998726 0.998726 0.998726 0.998726 0.998726 0.998726 0.998726