<?xml version="1.0"?>
<VTKFile type="UnstructuredGrid" version="0.1" byte_order="LittleEndian">
  <UnstructuredGrid>
    <Piece NumberOfCells="384" NumberOfPoints="425">
      <PointData Scalars="pressure_l">
        <DataArray type="Float32" Name="pressure_l" NumberOfComponents="1" format="ascii">
          2.6381e+07 2.63815e+07 2.63567e+07 2.6357e+07 2.63818e+07 2.63572e+07 2.6382e+07 2.63574e+07 2.63821e+07 2.63575e+07 2.63822e+07 2.63576e+07
          2.63823e+07 2.63577e+07 2.63824e+07 2.63578e+07 2.63824e+07 2.63578e+07 2.63825e+07 2.63579e+07 2.63825e+07 2.63579e+07 2.63825e+07 2.63579e+07
          2.63826e+07 2.6358e+07 2.63826e+07 2.6358e+07 2.63826e+07 2.6358e+07 2.63827e+07 2.6358e+07 2.63827e+07 2.63581e+07 2.63827e+07 2.63581e+07
          2.63827e+07 2.63581e+07 2.63828e+07 2.63581e+07 2.63828e+07 2.63582e+07 2.63828e+07 2.63582e+07 2.63828e+07 2.63582e+07 2.63828e+07 2.63582e+07
          2.63828e+07 2.63582e+07 2.63324e+07 2.63326e+07 2.63327e+07 2.63329e+07 2.6333e+07 2.63331e+07 2.63331e+07 2.63332e+07 2.63332e+07 2.63333e+07
          2.63333e+07 2.63333e+07 2.63334e+07 2.63334e+07 2.63334e+07 2.63334e+07 2.63335e+07 2.63335e+07 2.63335e+07 2.63335e+07 2.63336e+07 2.63336e+07
          2.63336e+07 2.63336e+07 2.63336e+07 2.6308e+07 2.63082e+07 2.63083e+07 2.63084e+07 2.63084e+07 2.63085e+07 2.63086e+07 2.63086e+07 2.63086e+07
          2.63087e+07 2.63087e+07 2.63087e+07 2.63088e+07 2.63088e+07 2.63088e+07 2.63088e+07 2.63089e+07 2.63089e+07 2.63089e+07 2.63089e+07 2.63089e+07
          2.6309e+07 2.6309e+07 2.6309e+07 2.63091e+07 2.62837e+07 2.62838e+07 2.62838e+07 2.62839e+07 2.62839e+07 2.6284e+07 2.6284e+07 2.6284e+07
          2.62841e+07 2.62841e+07 2.62841e+07 2.62841e+07 2.62842e+07 2.62842e+07 2.62842e+07 2.62842e+07 2.62843e+07 2.62843e+07 2.62843e+07 2.62843e+07
          2.62843e+07 2.62844e+07 2.62844e+07 2.62844e+07 2.62845e+07 2.62594e+07 2.62594e+07 2.62594e+07 2.62594e+07 2.62594e+07 2.62594e+07 2.62594e+07
          2.62594e+07 2.62595e+07 2.62595e+07 2.62595e+07 2.62595e+07 2.62596e+07 2.62596e+07 2.62596e+07 2.62596e+07 2.62596e+07 2.62597e+07 2.62597e+07
          2.62597e+07 2.62597e+07 2.62598e+07 2.62598e+07 2.62598e+07 2.62598e+07 2.6235e+07 2.6235e+07 2.62349e+07 2.62349e+07 2.62349e+07 2.62349e+07
          2.62349e+07 2.62349e+07 2.62349e+07 2.62349e+07 2.62349e+07 2.62349e+07 2.6235e+07 2.6235e+07 2.6235e+07 2.6235e+07 2.6235e+07 2.62351e+07
          2.62351e+07 2.62351e+07 2.62351e+07 2.62351e+07 2.62352e+07 2.62352e+07 2.62352e+07 2.62107e+07 2.62105e+07 2.62104e+07 2.62104e+07 2.62103e+07
          2.62103e+07 2.62103e+07 2.62103e+07 2.62103e+07 2.62103e+07 2.62103e+07 2.62103e+07 2.62104e+07 2.62104e+07 2.62104e+07 2.62104e+07 2.62104e+07
          2.62105e+07 2.62105e+07 2.62105e+07 2.62105e+07 2.62105e+07 2.62106e+07 2.62106e+07 2.62106e+07 2.61864e+07 2.61861e+07 2.61859e+07 2.61858e+07
          2.61858e+07 2.61857e+07 2.61857e+07 2.61857e+07 2.61857e+07 2.61857e+07 2.61857e+07 2.61857e+07 2.61858e+07 2.61858e+07 2.61858e+07 2.61858e+07
          2.61858e+07 2.61858e+07 2.61859e+07 2.61859e+07 2.61859e+07 2.61859e+07 2.61859e+07 2.61859e+07 2.6186e+07 2.6162e+07 2.61617e+07 2.61615e+07
          2.61614e+07 2.61613e+07 2.61612e+07 2.61612e+07 2.61612e+07 2.61612e+07 2.61612e+07 2.61612e+07 2.61612e+07 2.61612e+07 2.61612e+07 2.61612e+07
          2.61612e+07 2.61612e+07 2.61612e+07 2.61613e+07 2.61613e+07 2.61613e+07 2.61613e+07 2.61613e+07 2.61613e+07 2.61613e+07 2.61377e+07 2.61374e+07
          2.61372e+07 2.61371e+07 2.61369e+07 2.61368e+07 2.61368e+07 2.61367e+07 2.61367e+07 2.61367e+07 2.61366e+07 2.61366e+07 2.61366e+07 2.61366e+07
          2.61366e+07 2.61366e+07 2.61366e+07 2.61367e+07 2.61367e+07 2.61367e+07 2.61367e+07 2.61367e+07 2.61367e+07 2.61367e+07 2.61367e+07 2.61134e+07
          2.61131e+07 2.61129e+07 2.61127e+07 2.61125e+07 2.61124e+07 2.61123e+07 2.61122e+07 2.61122e+07 2.61121e+07 2.61121e+07 2.61121e+07 2.61121e+07
          2.61121e+07 2.61121e+07 2.61121e+07 2.61121e+07 2.61121e+07 2.61121e+07 2.61121e+07 2.61121e+07 2.61121e+07 2.61121e+07 2.61121e+07 2.61121e+07
          2.6089e+07 2.60888e+07 2.60885e+07 2.60883e+07 2.60881e+07 2.6088e+07 2.60878e+07 2.60877e+07 2.60877e+07 2.60876e+07 2.60876e+07 2.60875e+07
          2.60875e+07 2.60875e+07 2.60875e+07 2.60875e+07 2.60875e+07 2.60875e+07 2.60875e+07 2.60875e+07 2.60875e+07 2.60875e+07 2.60875e+07 2.60875e+07
          2.60875e+07 2.60647e+07 2.60644e+07 2.60641e+07 2.60639e+07 2.60637e+07 2.60635e+07 2.60633e+07 2.60632e+07 2.60631e+07 2.60631e+07 2.6063e+07
          2.6063e+07 2.60629e+07 2.60629e+07 2.60629e+07 2.60629e+07 2.60629e+07 2.60629e+07 2.60629e+07 2.60629e+07 2.60629e+07 2.60629e+07 2.60629e+07
          2.60629e+07 2.60629e+07 2.60404e+07 2.604e+07 2.60397e+07 2.60394e+07 2.60392e+07 2.6039e+07 2.60388e+07 2.60387e+07 2.60386e+07 2.60385e+07
          2.60384e+07 2.60384e+07 2.60384e+07 2.60383e+07 2.60383e+07 2.60383e+07 2.60383e+07 2.60383e+07 2.60383e+07 2.60383e+07 2.60383e+07 2.60383e+07
          2.60383e+07 2.60383e+07 2.60383e+07 2.6016e+07 2.60156e+07 2.60152e+07 2.60149e+07 2.60146e+07 2.60144e+07 2.60143e+07 2.60141e+07 2.6014e+07
          2.60139e+07 2.60139e+07 2.60138e+07 2.60138e+07 2.60137e+07 2.60137e+07 2.60137e+07 2.60137e+07 2.60137e+07 2.60137e+07 2.60137e+07 2.60137e+07
          2.60137e+07 2.60137e+07 2.60137e+07 2.60137e+07 2.59917e+07 2.5991e+07 2.59906e+07 2.59903e+07 2.599e+07 2.59898e+07 2.59897e+07 2.59895e+07
          2.59894e+07 2.59893e+07 2.59893e+07 2.59892e+07 2.59892e+07 2.59891e+07 2.59891e+07 2.59891e+07 2.59891e+07 2.59891e+07 2.59891e+07 2.59891e+07
          2.59891e+07 2.59891e+07 2.59891e+07 2.59891e+07 2.59891e+07
        </DataArray>
        <DataArray type="Float32" Name="pressure_g" NumberOfComponents="1" format="ascii">
          2.6391e+07 2.63915e+07 2.63667e+07 2.6367e+07 2.63918e+07 2.63672e+07 2.6392e+07 2.63674e+07 2.63921e+07 2.63675e+07 2.63922e+07 2.63676e+07
          2.63923e+07 2.63677e+07 2.63924e+07 2.63678e+07 2.63924e+07 2.63678e+07 2.63925e+07 2.63679e+07 2.63925e+07 2.63679e+07 2.63925e+07 2.63679e+07
          2.63926e+07 2.6368e+07 2.63926e+07 2.6368e+07 2.63926e+07 2.6368e+07 2.63927e+07 2.6368e+07 2.63927e+07 2.63681e+07 2.63927e+07 2.63681e+07
          2.63927e+07 2.63681e+07 2.63928e+07 2.63681e+07 2.63928e+07 2.63682e+07 2.63928e+07 2.63682e+07 2.63928e+07 2.63682e+07 2.63928e+07 2.63682e+07
          2.63928e+07 2.63682e+07 2.63424e+07 2.63426e+07 2.63427e+07 2.63429e+07 2.6343e+07 2.63431e+07 2.63431e+07 2.63432e+07 2.63432e+07 2.63433e+07
          2.63433e+07 2.63433e+07 2.63434e+07 2.63434e+07 2.63434e+07 2.63434e+07 2.63435e+07 2.63435e+07 2.63435e+07 2.63435e+07 2.63436e+07 2.63436e+07
          2.63436e+07 2.63436e+07 2.63436e+07 2.6318e+07 2.63182e+07 2.63183e+07 2.63184e+07 2.63184e+07 2.63185e+07 2.63186e+07 2.63186e+07 2.63186e+07
          2.63187e+07 2.63187e+07 2.63187e+07 2.63188e+07 2.63188e+07 2.63188e+07 2.63188e+07 2.63189e+07 2.63189e+07 2.63189e+07 2.63189e+07 2.63189e+07
          2.6319e+07 2.6319e+07 2.6319e+07 2.63191e+07 2.62937e+07 2.62938e+07 2.62938e+07 2.62939e+07 2.62939e+07 2.6294e+07 2.6294e+07 2.6294e+07
          2.62941e+07 2.62941e+07 2.62941e+07 2.62941e+07 2.62942e+07 2.62942e+07 2.62942e+07 2.62942e+07 2.62943e+07 2.62943e+07 2.62943e+07 2.62943e+07
          2.62943e+07 2.62944e+07 2.62944e+07 2.62944e+07 2.62945e+07 2.62694e+07 2.62694e+07 2.62694e+07 2.62694e+07 2.62694e+07 2.62694e+07 2.62694e+07
          2.62694e+07 2.62695e+07 2.62695e+07 2.62695e+07 2.62695e+07 2.62696e+07 2.62696e+07 2.62696e+07 2.62696e+07 2.62696e+07 2.62697e+07 2.62697e+07
          2.62697e+07 2.62697e+07 2.62698e+07 2.62698e+07 2.62698e+07 2.62698e+07 2.6245e+07 2.6245e+07 2.62449e+07 2.62449e+07 2.62449e+07 2.62449e+07
          2.62449e+07 2.62449e+07 2.62449e+07 2.62449e+07 2.62449e+07 2.62449e+07 2.6245e+07 2.6245e+07 2.6245e+07 2.6245e+07 2.6245e+07 2.62451e+07
          2.62451e+07 2.62451e+07 2.62451e+07 2.62451e+07 2.62452e+07 2.62452e+07 2.62452e+07 2.62207e+07 2.62205e+07 2.62204e+07 2.62204e+07 2.62203e+07
          2.62203e+07 2.62203e+07 2.62203e+07 2.62203e+07 2.62203e+07 2.62203e+07 2.62203e+07 2.62204e+07 2.62204e+07 2.62204e+07 2.62204e+07 2.62204e+07
          2.62205e+07 2.62205e+07 2.62205e+07 2.62205e+07 2.62205e+07 2.62206e+07 2.62206e+07 2.62206e+07 2.61964e+07 2.61961e+07 2.61959e+07 2.61958e+07
          2.61958e+07 2.61957e+07 2.61957e+07 2.61957e+07 2.61957e+07 2.61957e+07 2.61957e+07 2.61957e+07 2.61958e+07 2.61958e+07 2.61958e+07 2.61958e+07
          2.61958e+07 2.61958e+07 2.61959e+07 2.61959e+07 2.61959e+07 2.61959e+07 2.61959e+07 2.61959e+07 2.6196e+07 2.6172e+07 2.61717e+07 2.61715e+07
          2.61714e+07 2.61713e+07 2.61712e+07 2.61712e+07 2.61712e+07 2.61712e+07 2.61712e+07 2.61712e+07 2.61712e+07 2.61712e+07 2.61712e+07 2.61712e+07
          2.61712e+07 2.61712e+07 2.61712e+07 2.61713e+07 2.61713e+07 2.61713e+07 2.61713e+07 2.61713e+07 2.61713e+07 2.61713e+07 2.61477e+07 2.61474e+07
          2.61472e+07 2.61471e+07 2.61469e+07 2.61468e+07 2.61468e+07 2.61467e+07 2.61467e+07 2.61467e+07 2.61466e+07 2.61466e+07 2.61466e+07 2.61466e+07
          2.61466e+07 2.61466e+07 2.61466e+07 2.61467e+07 2.61467e+07 2.61467e+07 2.61467e+07 2.61467e+07 2.61467e+07 2.61467e+07 2.61467e+07 2.61234e+07
          2.61231e+07 2.61229e+07 2.61227e+07 2.61225e+07 2.61224e+07 2.61223e+07 2.61222e+07 2.61222e+07 2.61221e+07 2.61221e+07 2.61221e+07 2.61221e+07
          2.61221e+07 2.61221e+07 2.61221e+07 2.61221e+07 2.61221e+07 2.61221e+07 2.61221e+07 2.61221e+07 2.61221e+07 2.61221e+07 2.61221e+07 2.61221e+07
          2.6099e+07 2.60988e+07 2.60985e+07 2.60983e+07 2.60981e+07 2.6098e+07 2.60978e+07 2.60977e+07 2.60977e+07 2.60976e+07 2.60976e+07 2.60975e+07
          2.60975e+07 2.60975e+07 2.60975e+07 2.60975e+07 2.60975e+07 2.60975e+07 2.60975e+07 2.60975e+07 2.60975e+07 2.60975e+07 2.60975e+07 2.60975e+07
          2.60975e+07 2.60747e+07 2.60744e+07 2.60741e+07 2.60739e+07 2.60737e+07 2.60735e+07 2.60733e+07 2.60732e+07 2.60731e+07 2.60731e+07 2.6073e+07
          2.6073e+07 2.60729e+07 2.60729e+07 2.60729e+07 2.60729e+07 2.60729e+07 2.60729e+07 2.60729e+07 2.60729e+07 2.60729e+07 2.60729e+07 2.60729e+07
          2.60729e+07 2.60729e+07 2.60504e+07 2.605e+07 2.60497e+07 2.60494e+07 2.60492e+07 2.6049e+07 2.60488e+07 2.60487e+07 2.60486e+07 2.60485e+07
          2.60484e+07 2.60484e+07 2.60484e+07 2.60483e+07 2.60483e+07 2.60483e+07 2.60483e+07 2.60483e+07 2.60483e+07 2.60483e+07 2.60483e+07 2.60483e+07
          2.60483e+07 2.60483e+07 2.60483e+07 2.6026e+07 2.60256e+07 2.60252e+07 2.60249e+07 2.60246e+07 2.60244e+07 2.60243e+07 2.60241e+07 2.6024e+07
          2.60239e+07 2.60239e+07 2.60238e+07 2.60238e+07 2.60237e+07 2.60237e+07 2.60237e+07 2.60237e+07 2.60237e+07 2.60237e+07 2.60237e+07 2.60237e+07
          2.60237e+07 2.60237e+07 2.60237e+07 2.60237e+07 2.60017e+07 2.6001e+07 2.60006e+07 2.60003e+07 2.6e+07 2.59998e+07 2.59997e+07 2.59995e+07
          2.59994e+07 2.59993e+07 2.59993e+07 2.59992e+07 2.59992e+07 2.59991e+07 2.59991e+07 2.59991e+07 2.59991e+07 2.59991e+07 2.59991e+07 2.59991e+07
          2.59991e+07 2.59991e+07 2.59991e+07 2.59991e+07 2.59991e+07
        </DataArray>
        <DataArray type="Float32" Name="density_l" NumberOfComponents="1" format="ascii">
          1003.43 1003.43 1003.42 1003.42 1003.43 1003.42 1003.43 1003.42 1003.43 1003.42 1003.43 1003.42
          1003.43 1003.42 1003.43 1003.42 1003.43 1003.42 1003.43 1003.42 1003.43 1003.42 1003.43 1003.42
          1003.43 1003.42 1003.43 1003.42 1003.43 1003.42 1003.43 1003.42 1003.43 1003.42 1003.43 1003.42
          1003.43 1003.42 1003.43 1003.42 1003.43 1003.42 1003.43 1003.42 1003.43 1003.42 1003.43 1003.42
          1003.43 1003.42 1003.41 1003.41 1003.41 1003.41 1003.41 1003.41 1003.41 1003.41 1003.41 1003.41
          1003.41 1003.41 1003.41 1003.41 1003.41 1003.41 1003.41 1003.41 1003.41 1003.41 1003.41 1003.41
          1003.41 1003.41 1003.41 1003.4 1003.4 1003.4 1003.4 1003.4 1003.4 1003.4 1003.4 1003.4
          1003.4 1003.4 1003.4 1003.4 1003.4 1003.4 1003.4 1003.4 1003.4 1003.4 1003.4 1003.4
          1003.4 1003.4 1003.4 1003.4 1003.39 1003.39 1003.39 1003.39 1003.39 1003.39 1003.39 1003.39
          1003.39 1003.39 1003.39 1003.39 1003.39 1003.39 1003.39 1003.39 1003.39 1003.39 1003.39 1003.39
          1003.39 1003.39 1003.39 1003.39 1003.39 1003.38 1003.38 1003.38 1003.38 1003.38 1003.38 1003.38
          1003.38 1003.38 1003.38 1003.38 1003.38 1003.38 1003.38 1003.38 1003.38 1003.38 1003.38 1003.38
          1003.38 1003.38 1003.38 1003.38 1003.38 1003.38 1003.37 1003.37 1003.37 1003.37 1003.37 1003.37
          1003.37 1003.37 1003.37 1003.37 1003.37 1003.37 1003.37 1003.37 1003.37 1003.37 1003.37 1003.37
          1003.37 1003.37 1003.37 1003.37 1003.37 1003.37 1003.37 1003.36 1003.36 1003.36 1003.36 1003.36
          1003.36 1003.36 1003.36 1003.36 1003.36 1003.36 1003.36 1003.36 1003.36 1003.36 1003.36 1003.36
          1003.36 1003.36 1003.36 1003.36 1003.36 1003.36 1003.36 1003.36 1003.35 1003.35 1003.35 1003.35
          1003.35 1003.35 1003.35 1003.35 1003.35 1003.35 1003.35 1003.35 1003.35 1003.35 1003.35 1003.35
          1003.35 1003.35 1003.35 1003.35 1003.35 1003.35 1003.35 1003.35 1003.35 1003.34 1003.34 1003.34
          1003.34 1003.34 1003.34 1003.34 1003.34 1003.34 1003.34 1003.34 1003.34 1003.34 1003.34 1003.34
          1003.34 1003.34 1003.34 1003.34 1003.34 1003.34 1003.34 1003.34 1003.34 1003.34 1003.33 1003.33
          1003.33 1003.33 1003.33 1003.33 1003.33 1003.33 1003.33 1003.33 1003.33 1003.33 1003.33 1003.33
          1003.33 1003.33 1003.33 1003.33 1003.33 1003.33 1003.33 1003.33 1003.33 1003.33 1003.33 1003.32
          1003.32 1003.32 1003.32 1003.32 1003.32 1003.32 1003.32 1003.32 1003.32 1003.32 1003.32 1003.32
          1003.32 1003.32 1003.32 1003.32 1003.32 1003.32 1003.32 1003.32 1003.32 1003.32 1003.32 1003.32
          1003.31 1003.31 1003.31 1003.31 1003.31 1003.31 1003.31 1003.31 1003.31 1003.31 1003.31 1003.31
          1003.31 1003.31 1003.31 1003.31 1003.31 1003.31 1003.31 1003.31 1003.31 1003.31 1003.31 1003.31
          1003.31 1003.3 1003.3 1003.3 1003.3 1003.3 1003.3 1003.3 1003.3 1003.3 1003.3 1003.3
          1003.3 1003.3 1003.3 1003.3 1003.3 1003.3 1003.3 1003.3 1003.3 1003.3 1003.3 1003.3
          1003.3 1003.3 1003.29 1003.29 1003.29 1003.29 1003.29 1003.29 1003.29 1003.29 1003.29 1003.29
          1003.29 1003.29 1003.29 1003.29 1003.29 1003.29 1003.29 1003.29 1003.29 1003.29 1003.29 1003.29
          1003.29 1003.29 1003.29 1003.28 1003.28 1003.28 1003.28 1003.28 1003.28 1003.28 1003.28 1003.28
          1003.28 1003.28 1003.28 1003.28 1003.28 1003.27 1003.27 1003.27 1003.27 1003.27 1003.27 1003.27
          1003.27 1003.27 1003.27 1003.27 1003.27 1003.27 1003.27 1003.27 1003.27 1003.27 1003.27 1003.26
          1003.26 1003.26 1003.26 1003.26 1003.26 1003.26 1003.26 1003.26 1003.26 1003.26 1003.26 1003.26
          1003.26 1003.26 1003.26 1003.26 1003.26
        </DataArray>
        <DataArray type="Float32" Name="density_g" NumberOfComponents="1" format="ascii">
          283.889 283.894 283.627 283.63 283.897 283.633 283.899 283.635 283.901 283.636 283.902 283.637
          283.903 283.638 283.903 283.639 283.904 283.639 283.905 283.64 283.905 283.64 283.905 283.641
          283.906 283.641 283.906 283.641 283.906 283.641 283.906 283.642 283.907 283.642 283.907 283.642
          283.907 283.642 283.907 283.643 283.908 283.643 283.908 283.643 283.908 283.643 283.908 283.644
          283.908 283.644 283.365 283.367 283.369 283.371 283.372 283.373 283.374 283.374 283.375 283.375
          283.375 283.376 283.376 283.376 283.377 283.377 283.377 283.377 283.378 283.378 283.378 283.378
          283.379 283.379 283.388 283.104 283.105 283.106 283.107 283.108 283.109 283.109 283.11 283.11
          283.11 283.111 283.111 283.111 283.112 283.112 283.112 283.112 283.113 283.113 283.113 283.113
          283.114 283.114 283.114 283.13 282.842 282.842 282.843 282.844 282.844 282.844 282.845 282.845
          282.846 282.846 282.846 282.846 282.847 282.847 282.847 282.847 282.848 282.848 282.848 282.848
          282.849 282.849 282.849 282.85 282.865 282.58 282.58 282.58 282.58 282.58 282.58 282.581
          282.581 282.581 282.581 282.582 282.582 282.582 282.582 282.582 282.583 282.583 282.583 282.583
          282.584 282.584 282.584 282.584 282.585 282.6 282.318 282.317 282.317 282.316 282.316 282.316
          282.316 282.316 282.317 282.317 282.317 282.317 282.317 282.318 282.318 282.318 282.318 282.318
          282.319 282.319 282.319 282.319 282.32 282.32 282.329 282.056 282.055 282.054 282.053 282.052
          282.052 282.052 282.052 282.052 282.052 282.052 282.052 282.053 282.053 282.053 282.053 282.053
          282.054 282.054 282.054 282.054 282.055 282.055 282.055 282.055 281.794 281.791 281.79 281.789
          281.788 281.788 281.788 281.787 281.787 281.788 281.788 281.788 281.788 281.788 281.788 281.789
          281.789 281.789 281.789 281.789 281.79 281.79 281.79 281.79 281.79 281.533 281.529 281.527
          281.526 281.525 281.524 281.524 281.524 281.523 281.523 281.523 281.523 281.524 281.524 281.524
          281.524 281.524 281.524 281.524 281.525 281.525 281.525 281.525 281.525 281.525 281.271 281.268
          281.266 281.264 281.263 281.262 281.261 281.26 281.26 281.26 281.26 281.259 281.259 281.259
          281.259 281.259 281.26 281.26 281.26 281.26 281.26 281.26 281.26 281.26 281.26 281.009
          281.006 281.004 281.002 281 280.999 280.998 280.997 280.996 280.996 280.996 280.995 280.995
          280.995 280.995 280.995 280.995 280.995 280.995 280.995 280.995 280.995 280.995 280.996 280.996
          280.747 280.744 280.742 280.739 280.737 280.736 280.734 280.733 280.733 280.732 280.731 280.731
          280.731 280.731 280.731 280.73 280.73 280.73 280.731 280.731 280.731 280.731 280.731 280.731
          280.731 280.485 280.482 280.479 280.477 280.474 280.472 280.471 280.47 280.469 280.468 280.467
          280.467 280.466 280.466 280.466 280.466 280.466 280.466 280.466 280.466 280.466 280.466 280.466
          280.466 280.466 280.224 280.22 280.216 280.213 280.211 280.209 280.207 280.206 280.204 280.204
          280.203 280.202 280.202 280.202 280.201 280.201 280.201 280.201 280.201 280.201 280.201 280.201
          280.201 280.201 280.201 279.962 279.957 279.953 279.949 279.947 279.945 279.943 279.941 279.94
          279.939 279.938 279.938 279.937 279.937 279.937 279.937 279.937 279.936 279.936 279.936 279.936
          279.936 279.936 279.936 279.936 279.7 279.693 279.688 279.685 279.682 279.68 279.678 279.677
          279.676 279.675 279.674 279.673 279.673 279.672 279.672 279.672 279.672 279.672 279.672 279.672
          279.672 279.672 279.672 279.672 279.672
        </DataArray>
        <DataArray type="Float32" Name="saturation_l" NumberOfComponents="1" format="ascii">
          1 1 1 1 1 1 1 1 1 1 1 1
          1 1 1 1 1 1 1 1 1 1 1 1
          1 1 1 1 1 1 1 1 1 1 1 1
          1 1 1 1 1 1 1 1 1 1 1 1
          1 1 1 1 1 1 1 1 1 1 1 1
          1 1 1 1 1 1 1 1 1 1 1 1
          1 1 1 1 1 1 1 1 1 1 1 1
          1 1 1 1 1 1 1 1 1 1 1 1
          1 1 1 1 1 1 1 1 1 1 1 1
          1 1 1 1 1 1 1 1 1 1 1 1
          1 1 1 1 1 1 1 1 1 1 1 1
          1 1 1 1 1 1 1 1 1 1 1 1
          1 1 1 1 1 1 1 1 1 1 1 1
          1 1 1 1 1 1 1 1 1 1 1 1
          1 1 1 1 1 1 1 1 1 1 1 1
          1 1 1 1 1 1 1 1 1 1 1 1
          1 1 1 1 1 1 1 1 1 1 1 1
          1 1 1 1 1 1 1 1 1 1 1 1
          1 1 1 1 1 1 1 1 1 1 1 1
          1 1 1 1 1 1 1 1 1 1 1 1
          1 1 1 1 1 1 1 1 1 1 1 1
          1 1 1 1 1 1 1 1 1 1 1 1
          1 1 1 1 1 1 1 1 1 1 1 1
          1 1 1 1 1 1 1 1 1 1 1 1
          1 1 1 1 1 1 1 1 1 1 1 1
          1 1 1 1 1 1 1 1 1 1 1 1
          1 1 1 1 1 1 1 1 1 1 1 1
          1 1 1 1 1 1 1 1 1 1 1 1
          1 1 1 1 1 1 1 1 1 1 1 1
          1 1 1 1 1 1 1 1 1 1 1 1
          1 1 1 1 1 1 1 1 1 1 1 1
          1 1 1 1 1 1 1 1 1 1 1 1
          1 1 1 1 1 1 1 1 1 1 1 1
          1 1 1 1 1 1 1 1 1 1 1 1
          1 1 1 1 1 1 1 1 1 1 1 1
          1 1 1 1 1
        </DataArray>
        <DataArray type="Float32" Name="saturation_g" NumberOfComponents="1" format="ascii">
          0 0 0 0 0 0 0 0 0 0 0 0
          0 0 0 0 0 0 0 0 0 0 0 0
          0 0 0 0 0 0 0 0 0 0 0 0
          0 0 0 0 0 0 0 0 0 0 0 0
          0 0 0 0 0 0 0 0 0 0 0 0
          0 0 0 0 0 0 0 0 0 0 0 0
          0 0 0 0 0 0 0 0 0 0 0 0
          0 0 0 0 0 0 0 0 0 0 0 0
          0 0 0 0 0 0 0 0 0 0 0 0
          0 0 0 0 0 0 0 0 0 0 0 0
          0 0 0 0 0 0 0 0 0 0 0 0
          0 0 0 0 0 0 0 0 0 0 0 0
          0 0 0 0 0 0 0 0 0 0 0 0
          0 0 0 0 0 0 0 0 0 0 0 0
          0 0 0 0 0 0 0 0 0 0 0 0
          0 0 0 0 0 0 0 0 0 0 0 0
          0 0 0 0 0 0 0 0 0 0 0 0
          0 0 0 0 0 0 0 0 0 0 0 0
          0 0 0 0 0 0 0 0 0 0 0 0
          0 0 0 0 0 0 0 0 0 0 0 0
          0 0 0 0 0 0 0 0 0 0 0 0
          0 0 0 0 0 0 0 0 0 0 0 0
          0 0 0 0 0 0 0 0 0 0 0 0
          0 0 0 0 0 0 0 0 0 0 0 0
          0 0 0 0 0 0 0 0 0 0 0 0
          0 0 0 0 0 0 0 0 0 0 0 0
          0 0 0 0 0 0 0 0 0 0 0 0
          0 0 0 0 0 0 0 0 0 0 0 0
          0 0 0 0 0 0 0 0 0 0 0 0
          0 0 0 0 0 0 0 0 0 0 0 0
          0 0 0 0 0 0 0 0 0 0 0 0
          0 0 0 0 0 0 0 0 0 0 0 0
          0 0 0 0 0 0 0 0 0 0 0 0
          0 0 0 0 0 0 0 0 0 0 0 0
          0 0 0 0 0 0 0 0 0 0 0 0
          0 0 0 0 0
        </DataArray>
        <DataArray type="Float32" Name="relativePerm_l" NumberOfComponents="1" format="ascii">
          1 1 1 1 1 1 1 1 1 1 1 1
          1 1 1 1 1 1 1 1 1 1 1 1
          1 1 1 1 1 1 1 1 1 1 1 1
          1 1 1 1 1 1 1 1 1 1 1 1
          1 1 1 1 1 1 1 1 1 1 1 1
          1 1 1 1 1 1 1 1 1 1 1 1
          1 1 1 1 1 1 1 1 1 1 1 1
          1 1 1 1 1 1 1 1 1 1 1 1
          1 1 1 1 1 1 1 1 1 1 1 1
          1 1 1 1 1 1 1 1 1 1 1 1
          1 1 1 1 1 1 1 1 1 1 1 1
          1 1 1 1 1 1 1 1 1 1 1 1
          1 1 1 1 1 1 1 1 1 1 1 1
          1 1 1 1 1 1 1 1 1 1 1 1
          1 1 1 1 1 1 1 1 1 1 1 1
          1 1 1 1 1 1 1 1 1 1 1 1
          1 1 1 1 1 1 1 1 1 1 1 1
          1 1 1 1 1 1 1 1 1 1 1 1
          1 1 1 1 1 1 1 1 1 1 1 1
          1 1 1 1 1 1 1 1 1 1 1 1
          1 1 1 1 1 1 1 1 1 1 1 1
          1 1 1 1 1 1 1 1 1 1 1 1
          1 1 1 1 1 1 1 1 1 1 1 1
          1 1 1 1 1 1 1 1 1 1 1 1
          1 1 1 1 1 1 1 1 1 1 1 1
          1 1 1 1 1 1 1 1 1 1 1 1
          1 1 1 1 1 1 1 1 1 1 1 1
          1 1 1 1 1 1 1 1 1 1 1 1
          1 1 1 1 1 1 1 1 1 1 1 1
          1 1 1 1 1 1 1 1 1 1 1 1
          1 1 1 1 1 1 1 1 1 1 1 1
          1 1 1 1 1 1 1 1 1 1 1 1
          1 1 1 1 1 1 1 1 1 1 1 1
          1 1 1 1 1 1 1 1 1 1 1 1
          1 1 1 1 1 1 1 1 1 1 1 1
          1 1 1 1 1
        </DataArray>
        <DataArray type="Float32" Name="relativePerm_g" NumberOfComponents="1" format="ascii">
          0 0 0 0 0 0 0 0 0 0 0 0
          0 0 0 0 0 0 0 0 0 0 0 0
          0 0 0 0 0 0 0 0 0 0 0 0
          0 0 0 0 0 0 0 0 0 0 0 0
          0 0 0 0 0 0 0 0 0 0 0 0
          0 0 0 0 0 0 0 0 0 0 0 0
          0 0 0 0 0 0 0 0 0 0 0 0
          0 0 0 0 0 0 0 0 0 0 0 0
          0 0 0 0 0 0 0 0 0 0 0 0
          0 0 0 0 0 0 0 0 0 0 0 0
          0 0 0 0 0 0 0 0 0 0 0 0
          0 0 0 0 0 0 0 0 0 0 0 0
          0 0 0 0 0 0 0 0 0 0 0 0
          0 0 0 0 0 0 0 0 0 0 0 0
          0 0 0 0 0 0 0 0 0 0 0 0
          0 0 0 0 0 0 0 0 0 0 0 0
          0 0 0 0 0 0 0 0 0 0 0 0
          0 0 0 0 0 0 0 0 0 0 0 0
          0 0 0 0 0 0 0 0 0 0 0 0
          0 0 0 0 0 0 0 0 0 0 0 0
          0 0 0 0 0 0 0 0 0 0 0 0
          0 0 0 0 0 0 0 0 0 0 0 0
          0 0 0 0 0 0 0 0 0 0 0 0
          0 0 0 0 0 0 0 0 0 0 0 0
          0 0 0 0 0 0 0 0 0 0 0 0
          0 0 0 0 0 0 0 0 0 0 0 0
          0 0 0 0 0 0 0 0 0 0 0 0
          0 0 0 0 0 0 0 0 0 0 0 0
          0 0 0 0 0 0 0 0 0 0 0 0
          0 0 0 0 0 0 0 0 0 0 0 0
          0 0 0 0 0 0 0 0 0 0 0 0
          0 0 0 0 0 0 0 0 0 0 0 0
          0 0 0 0 0 0 0 0 0 0 0 0
          0 0 0 0 0 0 0 0 0 0 0 0
          0 0 0 0 0 0 0 0 0 0 0 0
          0 0 0 0 0
        </DataArray>
        <DataArray type="Float32" Name="porosity" NumberOfComponents="1" format="ascii">
          0.3 0.3 0.3 0.3 0.3 0.3 0.3 0.3 0.3 0.3 0.3 0.3
          0.3 0.3 0.3 0.3 0.3 0.3 0.3 0.3 0.3 0.3 0.3 0.3
          0.3 0.3 0.3 0.3 0.3 0.3 0.3 0.3 0.3 0.3 0.3 0.3
          0.3 0.3 0.3 0.3 0.3 0.3 0.3 0.3 0.3 0.3 0.3 0.3
          0.3 0.3 0.3 0.3 0.3 0.3 0.3 0.3 0.3 0.3 0.3 0.3
          0.3 0.3 0.3 0.3 0.3 0.3 0.3 0.3 0.3 0.3 0.3 0.3
          0.3 0.3 0.3 0.3 0.3 0.3 0.3 0.3 0.3 0.3 0.3 0.3
          0.3 0.3 0.3 0.3 0.3 0.3 0.3 0.3 0.3 0.3 0.3 0.3
          0.3 0.3 0.3 0.3 0.3 0.3 0.3 0.3 0.3 0.3 0.3 0.3
          0.3 0.3 0.3 0.3 0.3 0.3 0.3 0.3 0.3 0.3 0.3 0.3
          0.3 0.3 0.3 0.3 0.3 0.3 0.3 0.3 0.3 0.3 0.3 0.3
          0.3 0.3 0.3 0.3 0.3 0.3 0.3 0.3 0.3 0.3 0.3 0.3
          0.3 0.3 0.3 0.3 0.3 0.3 0.3 0.3 0.3 0.3 0.3 0.3
          0.3 0.3 0.3 0.3 0.3 0.3 0.3 0.3 0.3 0.3 0.3 0.3
          0.3 0.3 0.3 0.3 0.3 0.3 0.3 0.3 0.3 0.3 0.3 0.3
          0.3 0.3 0.3 0.3 0.3 0.3 0.3 0.3 0.3 0.3 0.3 0.3
          0.3 0.3 0.3 0.3 0.3 0.3 0.3 0.3 0.3 0.3 0.3 0.3
          0.3 0.3 0.3 0.3 0.3 0.3 0.3 0.3 0.3 0.3 0.3 0.3
          0.3 0.3 0.3 0.3 0.3 0.3 0.3 0.3 0.3 0.3 0.3 0.3
          0.3 0.3 0.3 0.3 0.3 0.3 0.3 0.3 0.3 0.3 0.3 0.3
          0.3 0.3 0.3 0.3 0.3 0.3 0.3 0.3 0.3 0.3 0.3 0.3
          0.3 0.3 0.3 0.3 0.3 0.3 0.3 0.3 0.3 0.3 0.3 0.3
          0.3 0.3 0.3 0.3 0.3 0.3 0.3 0.3 0.3 0.3 0.3 0.3
          0.3 0.3 0.3 0.3 0.3 0.3 0.3 0.3 0.3 0.3 0.3 0.3
          0.3 0.3 0.3 0.3 0.3 0.3 0.3 0.3 0.3 0.3 0.3 0.3
          0.3 0.3 0.3 0.3 0.3 0.3 0.3 0.3 0.3 0.3 0.3 0.3
          0.3 0.3 0.3 0.3 0.3 0.3 0.3 0.3 0.3 0.3 0.3 0.3
          0.3 0.3 0.3 0.3 0.3 0.3 0.3 0.3 0.3 0.3 0.3 0.3
          0.3 0.3 0.3 0.3 0.3 0.3 0.3 0.3 0.3 0.3 0.3 0.3
          0.3 0.3 0.3 0.3 0.3 0.3 0.3 0.3 0.3 0.3 0.3 0.3
          0.3 0.3 0.3 0.3 0.3 0.3 0.3 0.3 0.3 0.3 0.3 0.3
          0.3 0.3 0.3 0.3 0.3 0.3 0.3 0.3 0.3 0.3 0.3 0.3
          0.3 0.3 0.3 0.3 0.3 0.3 0.3 0.3 0.3 0.3 0.3 0.3
          0.3 0.3 0.3 0.3 0.3 0.3 0.3 0.3 0.3 0.3 0.3 0.3
          0.3 0.3 0.3 0.3 0.3 0.3 0.3 0.3 0.3 0.3 0.3 0.3
          0.3 0.3 0.3 0.3 0.3
        </DataArray>
        <DataArray type="Float32" Name="moleFrac_l^H2O" NumberOfComponents="1" format="ascii">
          0.998711 0.998711 0.998712 0.998712 0.998711 0.998712 0.998711 0.998712 0.998711 0.998712 0.998711 0.998712
          0.998711 0.998712 0.998711 0.998712 0.998711 0.998712 0.998711 0.998712 0.998711 0.998712 0.998711 0.998712
          0.998711 0.998712 0.998711 0.998712 0.998711 0.998712 0.998711 0.998712 0.998711 0.998712 0.998711 0.998712
          0.998711 0.998712 0.998711 0.998712 0.998711 0.998712 0.998711 0.998712 0.998711 0.998712 0.998711 0.998712
          0.998711 0.998712 0.998713 0.998713 0.998713 0.998713 0.998713 0.998713 0.998713 0.998713 0.998713 0.998713
          0.998713 0.998713 0.998713 0.998713 0.998713 0.998713 0.998713 0.998713 0.998713 0.998713 0.998713 0.998713
          0.998713 0.998713 0.998474 0.998714 0.998715 0.998714 0.998714 0.998714 0.998714 0.998714 0.998714 0.998714
          0.998714 0.998714 0.998714 0.998714 0.998714 0.998714 0.998714 0.998714 0.998714 0.998714 0.998714 0.998714
          0.998714 0.998714 0.998714 0.998236 0.998716 0.998716 0.998716 0.998716 0.998716 0.998716 0.998716 0.998716
          0.998716 0.998716 0.998716 0.998716 0.998716 0.998716 0.998716 0.998716 0.998716 0.998716 0.998716 0.998716
          0.998716 0.998716 0.998716 0.998716 0.998237 0.998717 0.998717 0.998717 0.998717 0.998717 0.998717 0.998717
          0.998717 0.998717 0.998717 0.998717 0.998717 0.998717 0.998717 0.998717 0.998717 0.998717 0.998717 0.998717
          0.998717 0.998717 0.998717 0.998717 0.998717 0.998238 0.998718 0.998718 0.998718 0.998718 0.998718 0.998718
          0.998718 0.998718 0.998718 0.998718 0.998718 0.998718 0.998718 0.998718 0.998718 0.998718 0.998718 0.998718
          0.998718 0.998718 0.998718 0.998718 0.998718 0.998718 0.998479 0.998719 0.998719 0.998719 0.998719 0.998719
          0.998719 0.998719 0.998719 0.998719 0.998719 0.998719 0.998719 0.998719 0.998719 0.998719 0.998719 0.998719
          0.998719 0.998719 0.998719 0.998719 0.998719 0.998719 0.998719 0.998719 0.99872 0.99872 0.99872 0.99872
          0.99872 0.99872 0.99872 0.99872 0.99872 0.99872 0.99872 0.99872 0.99872 0.99872 0.99872 0.99872
          0.99872 0.99872 0.99872 0.99872 0.99872 0.99872 0.99872 0.99872 0.99872 0.998722 0.998722 0.998722
          0.998722 0.998722 0.998722 0.998722 0.998722 0.998722 0.998722 0.998722 0.998722 0.998722 0.998722 0.998722
          0.998722 0.998722 0.998722 0.998722 0.998722 0.998722 0.998722 0.998722 0.998722 0.998722 0.998723 0.998723
          0.998723 0.998723 0.998723 0.998723 0.998723 0.998723 0.998723 0.998723 0.998723 0.998723 0.998723 0.998723
          0.998723 0.998723 0.998723 0.998723 0.998723 0.998723 0.998723 0.998723 0.998723 0.998723 0.998723 0.998724
          0.998724 0.998724 0.998724 0.998724 0.998724 0.998724 0.998724 0.998724 0.998724 0.998724 0.998724 0.998724
          0.998724 0.998724 0.998724 0.998724 0.998724 0.998724 0.998724 0.998724 0.998724 0.998724 0.998724 0.998724
          0.998725 0.998725 0.998725 0.998725 0.998725 0.998725 0.998725 0.998725 0.998725 0.998725 0.998725 0.998725
          0.998725 0.998725 0.998725 0.998725 0.998725 0.998725 0.998725 0.998725 0.998725 0.998725 0.998725 0.998725
          0.998725 0.998726 0.998726 0.998726 0.998726 0.998726 0.998726 0.998726 0.998726 0.998726 0.998726 0.998726
          0.998726 0.998726 0.998726 0.998726 0.998726 0.998726 0.998726 0.998726 0.998726 0.998726 0.998726 0.998726