<?xml version="1.0"?>
<VTKFile type="UnstructuredGrid" version="0.1" byte_order="LittleEndian">
  <UnstructuredGrid>
    <Piece NumberOfCells="1536" NumberOfPoints="1617">
      <PointData Scalars="pressure_w">
        <DataArray type="Float32" Name="pressure_w" NumberOfComponents="1" format="ascii">
          153955 152699 152269 151348 151832 150538 151120 149847 150505 149244 149960 148708
          149470 148223 149024 147780 148612 147372 148231 146992 147873 146637 147536 146301
          147216 145983 146911 145679 146618 145387 146335 145105 146061 144831 145795 144565
          145534 144305 145279 144050 145029 143800 144782 143554 144539 143311 144300 143072
          144063 142835 143829 142602 143598 142371 143370 142142 143144 141917 142922 141694
          142702 141474 142485 141257 142271 141043 142060 140832 141853 140625 141649 140421
          141448 140220 141251 140023 141057 139829 140865 139638 140677 139449 140491 139264
          140308 139081 140127 138900 139947 138720 139769 138542 139592 138366 139416 138189
          139240 138014 150583 149831 149127 148491 147920 147404 146934 146502 146102 145730
          145380 145050 144735 144435 144145 143866 143594 143330 143071 142817 142568 142323
          142080 141841 141605 141371 141140 140912 140686 140463 140243 140026 139812 139601
          139394 139190 138989 138792 138598 138407 138219 138034 137851 137671 137492 137314
          137138 136963 136788 148897 148257 147643 147069 146540 146054 145606 145192 144806
          144445 144105 143782 143474 143179 142894 142619 142350 142089 141832 141580 141332
          141088 140846 140608 140372 140138 139908 139679 139453 139230 139010 138792 138578
          138367 138159 137955 137755 137558 137364 137174 136986 136802 136620 136440 136262
          136085 135910 135735 135561 147211 146655 146115 145600 145117 144666 144246 143854
          143486 143140 142812 142500 142201 141913 141635 141364 141100 140842 140588 140339
          140093 139850 139609 139372 139136 138903 138672 138444 138217 137994 137773 137555
          137340 137129 136921 136717 136516 136320 136127 135937 135750 135567 135386 135207
          135031 134855 134681 134508 134335 145525 145037 144559 144099 143661 143247 142858
          142491 142144 141816 141503 141204 140916 140638 140367 140103 139844 139591 139341
          139094 138850 138609 138370 138133 137898 137665 137435 137206 136979 136755 136533
          136315 136099 135887 135679 135475 135275 135078 134886 134697 134512 134329 134150
          133973 133798 133624 133452 133280 133109 143838 143409 142985 142575 142180 141804
          141446 141107 140785 140477 140182 139897 139622 139354 139093 138836 138584 138335
          138090 137846 137605 137366 137129 136893 136659 136426 136195 135966 135738 135513
          135291 135071 134855 134642 134433 134229 134029 133833 133641 133454 133270 133089
          132912 132736 132563 132392 132221 132052 131882 142152 141773 141399 141033 140680
          140341 140017 139707 139410 139125 138849 138581 138321 138065 137814 137566 137320
          137077 136836 136597 136358 136121 135886 135651 135417 135185 134953 134724 134495
          134269 134045 133824 133607 133393 133183 132978 132778 132583 132393 132207 132025
          131846 131671 131498 131327 131158 130990 130823 130656 140466 140133 139803 139480
          139166 138864 138573 138293 138024 137763 137508 137259 137014 136771 136531 136292
          136054 135817 135581 135345 135110 134876 134641 134408 134175 133942 133711 133480
          133250 133023 132797 132574 132355 132139 131929 131723 131523 131329 131140 130956
          130776 130600 130427 130257 130089 129923 129758 129594 129430 138780 138488 138199
          137916 137641 137375 137118 136870 136629 136394 136162 135933 135704 135476 135247
          135018 134787 134557 134325 134094 133862 133629 133397 133164 132932 132699 132467
          132235 132004 131774 131546 131320 131098 130881 130669 130462 130263 130069 129882
          129701 129524 129351 129181 129015 128850 128687 128525 128364 128204 137094 136841
          136590 136345 136106 135876 135654 135439 135229 135022 134815 134606 134395 134181
          133964 133744 133521 133297 133070 132842 132613 132383 132152 131921 131688 131456
          131223 130989 130756 130524 130292 130063 129838 129617 129403 129195 128995 128803
          128619 128440 128267 128098 127933 127770 127609 127450 127292 127134 126978 135408
          135191 134976 134766 134563 134369 134182 134002 133826 133649 133469 133282 133089
          132889 132683 132472 132257 132038 131817 131592 131366 131138 130908 130678 130446
          130213 129979 129744 129508 129272 129037 128803 128572 128347 128129 127920 127720
          127530 127349 127175 127007 126842 126681 126523 126366 126211 126057 125904 125751
          133722 133538 133357 133180 133012 132853 132703 132562 132424 132281 132129 131965
          131789 131603 131408 131205 130997 130783 130565 130344 130120 129894 129666 129436
          129204 128971 128736 128499 128260 128021 127779 127539 127300 127069 126846 126634
          126434 126249 126073 125905 125742 125583 125427 125274 125122 124972 124822 124674
          124525 132036 131882 131732 131587 131451 131326 131216 131119 131026 130923 130801
          130660 130500 130326 130140 129944 129741 129532 129317 129099 128877 128652 128425
          128196 127964 127730 127494 127256 127014 126770 126523 126272 126022 125780 125550
          125334 125137 124957 124790 124629 124473 124321 124171 124023 123877 123731 123587
          123443 123299 130350 130224 130102 129985 129878 129785 129712 129669 129640 129587
          129495 129372 129225 129060 128881 128691 128491 128285 128073 127857 127637 127413
          127187 126958 126726 126492 126255 126015 125772 125523 125269 125007 124737 124472
          124228 124014 123825 123657 123500 123348 123201 123056 122913 122771 122630 122490
          122351 122212 122072 128664 128563 128466 128374 128292 128224 128179 128182 128301
          128290 128219 128108 127969 127809 127633 127446 127249 127044 126834 126619 126399
          126176 125951 125722 125491 125256 125019 124779 124533 124282 124022 123750 123464
          123108 122865 122670 122500 122348 122204 122064 121926 121789 121653 121518 121383
          121249 121114 120980 120846 126978 126899 126824 126753 126692 126642 126611 126595
          126728 126762 126705 126604 126474 126323 126156 125978 125790 125595 125394 125188
          124977 124763 124545 124324 124099 123871 123639 123401 123156 122901 122631 122329
          121929 121582 121462 121309 121167 121035 120907 120778 120650 120521 120393 120264
          120135 120007 119878 119749 119620 125291 125233 125176 125124 125079 125043 125020
          125012 125022 125015 124956 124861 124741 124602 124450 124287 124116 123938 123754
          123564 123370 123172 122969 122763 122552 122337 122115 121885 121644 121388 121107
          120782 120384 120143 120059 119948 119834 119722 119609 119492 119374 119254 119133
          119011 118888 118765 118641 118518 118394 123605 123564 123525 123489 123457 123432
          123415 123407 123379 123320 123242 123142 123025 122895 122754 122605 122449 122286
          122118 121945 121767 121585 121398 121207 121010 120808 120598 120379 120147 119897
          119621 119308 118950 118745 118684 118598 118508 118414 118314 118208 118099 117987
          117873 117758 117641 117523 117405 117286 117168 121919 121895 121871 121848 121828
          121812 121800 121793 121745 121650 121549 121440 121323 121198 121067 120930 120788
          120640 120488 120331 120169 120002 119831 119656 119474 119287 119092 118886 118668
          118431 118172 117883 117562 117382 117334 117267 117193 117112 117024 116928 116827
          116723 116616 116506 116395 116283 116169 116055 115941 120233 120224 120215 120205
          120196 120187 120179 120174 120109 119986 119865 119746 119627 119507 119385 119260
          119132 118999 118862 118721 118575 118424 118270 118110 117945 117773 117594 117406
          117205 116989 116752 116493 116207 116048 116009 115953 115890 115820 115740 115653
          115559 115462 115360 115256 115150 115043 114934 114825 114715 118547 118554 118559
          118563 118563 118561 118557 118552 118471 118319 118180 118052 117933 117819 117707
          117594 117480 117362 117241 117115 116985 116851 116712 116569 116421 116267 116106
          115938 115758 115566 115357 115128 114878 114739 114704 114655 114601 114538 114464
          114383 114296 114203 114107 114008 113907 113804 113699 113594 113489 116861 116885
          116906 116923 116933 116937 116935 116928 116825 116639 116481 116349 116234 116129
          116029 115930 115831 115730 115624 115514 115400 115282 115160 115033 114902 114767
          114627 114480 114325 114160 113981 113786 113571 113451 113418 113374 113324 113265
          113197 113120 113037 112949 112857 112762 112665 112566 112465 112364 112262 115175
          115218 115258 115290 115311 115320 115316 115304 115159 114925 114757 114631 114526
          114434 114349 114267 114186 114101 114012 113918 113820 113717 113611 113502 113389
          113272 113153 113030 112902 112767 112622 112464 112287 112184 112151 112109 112060
          112003 111937 111863 111783 111699 111610 111519 111425 111329 111232 111135 111036
          113489 113556 113617 113667 113702 113716 113706 113687 113397 113141 112997 112892
          112806 112732 112665 112604 112544 112477 112404 112325 112243 112156 112066 111974
          111878 111781 111683 111584 111485 111383 111277 111162 111028 110940 110903 110857
          110808 110750 110684 110612 110534 110452 110367 110278 110187 110094 110000 109905
          109810 111803 111898 111987 112061 112114 112138 112121 112024 111746 111593 111481
          111395 111323 111260 111203 111153 111109 111052 110986 110915 110839 110761 110679
          110595 110508 110420 110332 110246 110162 110079 109994 109904 109810 109732 109670
          109619 109565 109505 109438 109366 109290 109209 109126 109039 108951 108860 108769
          108676 108584 110117 110249 110371 110476 110554 110597 110595 110531 110421 110310
          110220 110144 110078 110018 109962 109908 109852 109789 109717 109639 109556 109471
          109384 109296 109206 109118 109038 108963 108891 108818 108745 108670 108593 108520
          108453 108391 108330 108265 108197 108125 108049 107970 107887 107803 107716 107628
          107538 107448 107358 108430 108609 108774 108917 109028 109100 109129 109115 109069
          109007 108944 108884 108827 108772 108719 108665 108609 108547 108475 108398 108317
          108233 108147 108059 107971 107886 107807 107734 107662 107590 107517 107444 107371
          107299 107231 107164 107098 107030 106960 106887 106811 106733 106651 106568 106483
          106396 106309 106220 106131 106744 106982 107202 107390 107540 107647 107711 107735
          107729 107702 107664 107620 107574 107525 107475 107424 107369 107308 107236 107160
          107080 106997 106912 106826 106738 106655 106578 106505 106434 106362 106290 106218
          106146 106075 106005 105937 105868 105798 105727 105653 105577 105498 105418 105335
          105251 105166 105080 104992 104905 105058 105373 105661 105904 106096 106237 106332
          106387 106409 106407 106389 106359 106322 106280 106234 106184 106132 106071 106000
          105924 105845 105763 105679 105593 105506 105424 105349 105277 105206 105135 105064
          104992 104921 104850 104779 104709 104639 104568 104495 104421 104344 104266 104186
          104104 104021 103937 103851 103765 103679 103372 103795 104169 104471 104703 104875
          104995 105072 105114 105129 105124 105105 105075 105038 104995 104948 104897 104837
          104766 104691 104612 104531 104448 104362 104276 104195 104121 104050 103979 103908
          103837 103766 103695 103624 103553 103482 103411 103338 103265 103190 103114 103036
          102956 102875 102792 102708 102623 102538 102452 101686 102276 102754 103108 103372
          103564 103700 103791 103845 103870 103873 103861 103836 103802 103761 103716 103666
          103606 103535 103460 103382 103301 103218 103133 103047 102966 102894 102824 102753
          102682 102611 102540 102469 102397 102326 102255 102183 102111 102037 101962 101885
          101807 101728 101647 101564 101481 101396 101311 101226 100000 100924 101458 101834
          102109 102309 102451 102546 102604 102633 102639 102628 102605 102572 102533 102487
          102438 102378 102307 102232 102155 102074 101991 101906 101819 101739 101668 101597
          101526 101456 101385 101313 101242 101171 101100 101028 100956 100884 100810 100735
          100658 100580 100501 100420 100337 100254 100170 100085 100000
        </DataArray>
        <DataArray type="Float32" Name="pressure_n" NumberOfComponents="1" format="ascii">
          153955 152699 152269 151348 151832 150538 151120 149847 150505 149244 149960 148708
          149470 148223 149024 147780 148612 147372 148231 146992 147873 146637 147536 146301
          147216 145983 146911 145679 146618 145387 146335 145105 146061 144831 145795 144565
          145534 144305 145279 144050 145029 143800 144782 143554 144539 143311 144300 143072
          144063 142835 143829 142602 143598 142371 143370 142142 143144 141917 142922 141694
          142702 141474 142485 141257 142271 141043 142060 140832 141853 140625 141649 140421
          141448 140220 141251 140023 141057 139829 140865 139638 140677 139449 140491 139264
          140308 139081 140127 138900 139947 138720 139769 138542 139592 138366 139416 138189
          139240 138014 150583 149831 149127 148491 147920 147404 146934 146502 146102 145730
          145380 145050 144735 144435 144145 143866 143594 143330 143071 142817 142568 142323
          142080 141841 141605 141371 141140 140912 140686 140463 140243 140026 139812 139601
          139394 139190 138989 138792 138598 138407 138219 138034 137851 137671 137492 137314
          137138 136963 136788 148897 148257 147643 147069 146540 146054 145606 145192 144806
          144445 144105 143782 143474 143179 142894 142619 142350 142089 141832 141580 141332
          141088 140846 140608 140372 140138 139908 139679 139453 139230 139010 138792 138578
          138367 138159 137955 137755 137558 137364 137174 136986 136802 136620 136440 136262
          136085 135910 135735 135561 147211 146655 146115 145600 145117 144666 144246 143854
          143486 143140 142812 142500 142201 141913 141635 141364 141100 140842 140588 140339
          140093 139850 139609 139372 139136 138903 138672 138444 138217 137994 137773 137555
          137340 137129 136921 136717 136516 136320 136127 135937 135750 135567 135386 135207
          135031 134855 134681 134508 134335 145525 145037 144559 144099 143661 143247 142858
          142491 142144 141816 141503 141204 140916 140638 140367 140103 139844 139591 139341
          139094 138850 138609 138370 138133 137898 137665 137435 137206 136979 136755 136533
          136315 136099 135887 135679 135475 135275 135078 134886 134697 134512 134329 134150
          133973 133798 133624 133452 133280 133109 143838 143409 142985 142575 142180 141804
          141446 141107 140785 140477 140182 139897 139622 139354 139093 138836 138584 138335
          138090 137846 137605 137366 137129 136893 136659 136426 136195 135966 135738 135513
          135291 135071 134855 134642 134433 134229 134029 133833 133641 133454 133270 133089
          132912 132736 132563 132392 132221 132052 131882 142152 141773 141399 141033 140680
          140341 140017 139707 139410 139125 138849 138581 138321 138065 137814 137566 137320
          137077 136836 136597 136358 136121 135886 135651 135417 135185 134953 134724 134495
          134269 134045 133824 133607 133393 133183 132978 132778 132583 132393 132207 132025
          131846 131671 131498 131327 131158 130990 130823 130656 140466 140133 139803 139480
          139166 138864 138573 138293 138024 137763 137508 137259 137014 136771 136531 136292
          136054 135817 135581 135345 135110 134876 134641 134408 134175 133942 133711 133480
          133250 133023 132797 132574 132355 132139 131929 131724 131523 131329 131140 130956
          130776 130600 130427 130257 130089 129923 129758 129594 129430 138780 138488 138199
          137916 137641 137375 137118 136870 136629 136394 136162 135933 135704 135476 135247
          135018 134787 134557 134325 134094 133862 133629 133397 133164 132932 132699 132467
          132235 132004 131774 131546 131320 131098 130882 130682 130476 130265 130069 129882
          129701 129524 129351 129181 129015 128850 128687 128525 128364 128204 137094 136841
          136590 136345 136106 135876 135654 135439 135229 135022 134815 134606 134395 134181
          133964 133744 133521 133297 133070 132842 132613 132383 132152 131921 131688 131456
          131223 130989 130756 130524 130292 130063 129838 129635 129457 129250 129020 128805
          128619 128440 128267 128098 127933 127770 127609 127450 127292 127134 126978 135408
          135191 134976 134766 134563 134369 134182 134002 133826 133649 133469 133282 133089
          132889 132683 132472 132257 132038 131817 131592 131366 131138 130908 130678 130446
          130213 129979 129744 129508 129272 129037 128803 128572 128409 128227 128017 127785
          127546 127350 127175 127007 126842 126681 126523 126366 126211 126057 125904 125751
          133722 133538 133357 133180 133012 132853 132703 132562 132424 132281 132129 131965
          131789 131603 131408 131205 130997 130783 130565 130344 130120 129894 129666 129436
          129204 128971 128736 128499 128260 128021 127779 127539 127300 127171 126962 126748
          126532 126291 126076 125905 125742 125583 125427 125274 125122 124972 124822 124674
          124525 132036 131882 131732 131587 131451 131326 131216 131119 131026 130923 130801
          130660 130500 130326 130140 129944 129741 129532 129317 129099 128877 128652 128425
          128196 127964 127730 127494 127256 127014 126770 126523 126272 126022 125897 125677
          125458 125248 125025 124800 124629 124473 124321 124171 124023 123877 123731 123587
          123443 123299 130350 130224 130102 129985 129878 129785 129712 129669 129640 129587
          129495 129372 129225 129060 128881 128691 128491 128285 128073 127857 127637 127413
          127187 126958 126726 126492 126255 126015 125772 125523 125269 125007 124737 124602
          124366 124147 123943 123739 123516 123349 123201 123056 122913 122771 122630 122490
          122351 122212 122072 128664 128563 128466 128374 128292 128224 128179 128182 128301
          128290 128219 128108 127969 127809 127633 127446 127249 127044 126834 126619 126399
          126176 125951 125722 125491 125256 125019 124779 124533 124282 124022 123750 123464
          123250 123012 122810 122622 122436 122223 122065 121926 121789 121653 121518 121383
          121249 121114 120980 120846 126978 126899 126824 126753 126692 126642 126611 126595
          126728 126762 126705 126604 126474 126323 126156 125978 125790 125595 125394 125188
          124977 124763 124545 124324 124099 123871 123639 123401 123156 122901 122631 122329
          121929 121743 121617 121453 121289 121120 120923 120778 120650 120521 120393 120264
          120135 120007 119878 119749 119620 125291 125233 125176 125124 125079 125043 125020
          125012 125022 125015 124956 124861 124741 124602 124450 124287 124116 123938 123754
          123564 123370 123172 122969 122763 122552 122337 122115 121885 121644 121388 121107
          120782 120384 120311 120220 120092 119954 119799 119620 119492 119374 119254 119133
          119011 118888 118765 118641 118518 118394 123605 123564 123525 123489 123457 123432
          123415 123407 123379 123320 123242 123142 123025 122895 122754 122605 122449 122286
          122118 121945 121767 121585 121398 121207 121010 120808 120598 120379 120147 119897
          119621 119308 118950 118918 118847 118743 118626 118480 118320 118208 118099 117987
          117873 117758 117641 117523 117405 117286 117168 121919 121895 121871 121848 121828
          121812 121800 121793 121745 121650 121549 121440 121323 121198 121067 120930 120788
          120640 120488 120331 120169 120002 119831 119656 119474 119287 119092 118886 118668
          118431 118172 117883 117562 117560 117499 117410 117308 117169 117028 116928 116827
          116723 116616 116506 116395 116283 116169 116055 115941 120233 120224 120215 120205
          120196 120187 120179 120174 120109 119986 119865 119746 119627 119507 119385 119260
          119132 118999 118862 118721 118575 118424 118270 118110 117945 117773 117594 117406
          117205 116989 116752 116493 116227 116229 116174 116095 116002 115867 115743 115653
          115559 115462 115360 115256 115150 115043 114934 114825 114715 118547 118554 118559
          118563 118563 118561 118557 118552 118471 118319 118180 118052 117933 117819 117707
          117594 117480 117362 117241 117115 116985 116851 116712 116569 116421 116267 116106
          115938 115758 115566 115357 115128 114922 114923 114869 114796 114710 114577 114466
          114383 114296 114203 114107 114008 113907 113804 113699 113594 113489 116861 116885
          116906 116923 116933 116937 116935 116928 116825 116639 116481 116349 116234 116129
          116029 115930 115831 115730 115624 115514 115400 115282 115160 115033 114902 114767
          114627 114480 114325 114160 113981 113786 113636 113637 113583 113512 113430 113297
          113198 113120 113037 112949 112857 112762 112665 112566 112465 112364 112262 115175
          115218 115258 115290 115311 115320 115316 115304 115159 114925 114757 114631 114526
          114434 114349 114268 114190 114108 114020 113927 113830 113729 113624 113515 113403
          113287 113168 113045 112918 112783 112640 112483 112373 112373 112315 112242 112159
          112026 111937 111863 111783 111699 111610 111519 111425 111329 111232 111135 111036
          113489 113556 113617 113667 113702 113716 113706 113687 113397 113141 112997 112892
          112806 112733 112779 113073 113098 113054 113006 112949 112885 112816 112743 112665
          112583 112497 112410 112321 112233 112148 112058 111962 112026 111127 111063 110985
          110894 110764 110684 110612 110534 110452 110367 110278 110187 110094 110000 109905
          109810 111803 111898 111987 112061 112114 112138 112121 112024 111746 111593 111481
          111395 111323 111279 111317 111296 111296 111264 111216 111159 111095 111026 110952
          110874 110792 110707 110619 110531 110443 110358 110268 110172 110042 109930 109824
          109737 109625 109509 109438 109366 109290 109209 109126 109039 108951 108860 108769
          108676 108584 110117 110249 110371 110476 110554 110597 110595 110531 110421 110310
          110220 110144 110078 110018 109968 109993 109992 109943 109878 109802 109722 109638
          109552 109463 109370 109273 109179 109086 108988 108848 108746 108670 108593 108520
          108453 108391 108330 108265 108197 108125 108049 107970 107887 107803 107716 107628
          107538 107448 107358 108430 108609 108774 108917 109028 109100 109129 109115 109069
          109007 108944 108884 108827 108772 108728 108751 108750 108700 108633 108558 108477
          108394 108308 108220 108127 108031 107937 107844 107729 107600 107517 107444 107371
          107299 107231 107164 107098 107030 106960 106887 106811 106733 106651 106568 106483
          106396 106309 106220 106131 106744 106982 107202 107390 107540 107647 107711 107735
          107729 107702 107664 107620 107574 107525 107488 107512 107511 107462 107395 107320
          107240 107158 107073 106986 106893 106797 106703 106610 106487 106368 106290 106218
          106146 106075 106005 105937 105868 105798 105727 105653 105577 105498 105418 105335
          105251 105166 105080 104992 104905 105058 105373 105661 105904 106096 106237 106332
          106387 106409 106407 106389 106359 106322 106280 106250 106275 106275 106227 106160
          106085 106006 105924 105840 105753 105660 105563 105469 105373 105245 105138 105064
          104992 104921 104850 104779 104709 104639 104568 104495 104421 104344 104266 104186
          104104 104021 103937 103851 103765 103679 103372 103795 104169 104471 104703 104875
          104995 105072 105114 105129 105124 105105 105075 105038 105014 105040 105042 104994
          104926 104852 104773 104692 104609 104523 104428 104329 104234 104130 104002 103909
          103837 103766 103695 103624 103553 103482 103411 103338 103265 103190 103114 103036
          102956 102875 102792 102708 102623 102538 102452 101686 102276 102754 103108 103372
          103564 103700 103791 103845 103870 103873 103861 103836 103802 103779 103806 103811
          103765 103696 103621 103543 103462 103379 103294 103198 103094 102998 102879 102762
          102682 102611 102540 102469 102397 102326 102255 102183 102111 102037 101962 101885
          101807 101728 101647 101564 101481 101396 101311 101226 100000 100924 101458 101834
          102109 102309 102451 102546 102604 102633 102639 102628 102605 102572 102542 102564
          102585 102538 102468 102393 102315 102235 102152 102067 101968 101853 101732 101614
          101527 101456 101385 101313 101242 101171 101100 101028 100956 100884 100810 100735
          100658 100580 100501 100420 100337 100254 100170 100085 100000
        </DataArray>
        <DataArray type="Float32" Name="density_w" NumberOfComponents="1" format="ascii">
          1000 1000 1000 1000 1000 1000 1000 1000 1000 1000 1000 1000
          1000 1000 1000 1000 1000 1000 1000 1000 1000 1000 1000 1000
          1000 1000 1000 1000 1000 1000 1000 1000 1000 1000 1000 1000
          1000 1000 1000 1000 1000 1000 1000 1000 1000 1000 1000 1000
          1000 1000 1000 1000 1000 1000 1000 1000 1000 1000 1000 1000
          1000 1000 1000 1000 1000 1000 1000 1000 1000 1000 1000 1000
          1000 1000 1000 1000 1000 1000 1000 1000 1000 1000 1000 1000
          1000 1000 1000 1000 1000 1000 1000 1000 1000 1000 1000 1000
          1000 1000 1000 1000 1000 1000 1000 1000 1000 1000 1000 1000
          1000 1000 1000 1000 1000 1000 1000 1000 1000 1000 1000 1000
          1000 1000 1000 1000 1000 1000 1000 1000 1000 1000 1000 1000
          1000 1000 1000 1000 1000 1000 1000 1000 1000 1000 1000 1000
          1000 1000 1000 1000 1000 1000 1000 1000 1000 1000 1000 1000
          1000 1000 1000 1000 1000 1000 1000 1000 1000 1000 1000 1000
          1000 1000 1000 1000 1000 1000 1000 1000 1000 1000 1000 1000
          1000 1000 1000 1000 1000 1000 1000 1000 1000 1000 1000 1000
          1000 1000 1000 1000 1000 1000 1000 1000 1000 1000 1000 1000
          1000 1000 1000 1000 1000 1000 1000 1000 1000 1000 1000 1000
          1000 1000 1000 1000 1000 1000 1000 1000 1000 1000 1000 1000
          1000 1000 1000 1000 1000 1000 1000 1000 1000 1000 1000 1000
          1000 1000 1000 1000 1000 1000 1000 1000 1000 1000 1000 1000
          1000 1000 1000 1000 1000 1000 1000 1000 1000 1000 1000 1000
          1000 1000 1000 1000 1000 1000 1000 1000 1000 1000 1000 1000
          1000 1000 1000 1000 1000 1000 1000 1000 1000 1000 1000 1000
          1000 1000 1000 1000 1000 1000 1000 1000 1000 1000 1000 1000
          1000 1000 1000 1000 1000 1000 1000 1000 1000 1000 1000 1000
          1000 1000 1000 1000 1000 1000 1000 1000 1000 1000 1000 1000
          1000 1000 1000 1000 1000 1000 1000 1000 1000 1000 1000 1000
          1000 1000 1000 1000 1000 1000 1000 1000 1000 1000 1000 1000
          1000 1000 1000 1000 1000 1000 1000 1000 1000 1000 1000 1000
          1000 1000 1000 1000 1000 1000 1000 1000 1000 1000 1000 1000
          1000 1000 1000 1000 1000 1000 1000 1000 1000 1000 1000 1000
          1000 1000 1000 1000 1000 1000 1000 1000 1000 1000 1000 1000
          1000 1000 1000 1000 1000 1000 1000 1000 1000 1000 1000 1000
          1000 1000 1000 1000 1000 1000 1000 1000 1000 1000 1000 1000
          1000 1000 1000 1000 1000 1000 1000 1000 1000 1000 1000 1000
          1000 1000 1000 1000 1000 1000 1000 1000 1000 1000 1000 1000
          1000 1000 1000 1000 1000 1000 1000 1000 1000 1000 1000 1000
          1000 1000 1000 1000 1000 1000 1000 1000 1000 1000 1000 1000
          1000 1000 1000 1000 1000 1000 1000 1000 1000 1000 1000 1000
          1000 1000 1000 1000 1000 1000 1000 1000 1000 1000 1000 1000
          1000 1000 1000 1000 1000 1000 1000 1000 1000 1000 1000 1000
          1000 1000 1000 1000 1000 1000 1000 1000 1000 1000 1000 1000
          1000 1000 1000 1000 1000 1000 1000 1000 1000 1000 1000 1000
          1000 1000 1000 1000 1000 1000 1000 1000 1000 1000 1000 1000
          1000 1000 1000 1000 1000 1000 1000 1000 1000 1000 1000 1000
          1000 1000 1000 1000 1000 1000 1000 1000 1000 1000 1000 1000
          1000 1000 1000 1000 1000 1000 1000 1000 1000 1000 1000 1000
          1000 1000 1000 1000 1000 1000 1000 1000 1000 1000 1000 1000
          1000 1000 1000 1000 1000 1000 1000 1000 1000 1000 1000 1000
          1000 1000 1000 1000 1000 1000 1000 1000 1000 1000 1000 1000
          1000 1000 1000 1000 1000 1000 1000 1000 1000 1000 1000 1000
          1000 1000 1000 1000 1000 1000 1000 1000 1000 1000 1000 1000
          1000 1000 1000 1000 1000 1000 1000 1000 1000 1000 1000 1000
          1000 1000 1000 1000 1000 1000 1000 1000 1000 1000 1000 1000
          1000 1000 1000 1000 1000 1000 1000 1000 1000 1000 1000 1000
          1000 1000 1000 1000 1000 1000 1000 1000 1000 1000 1000 1000
          1000 1000 1000 1000 1000 1000 1000 1000 1000 1000 1000 1000
          1000 1000 1000 1000 1000 1000 1000 1000 1000 1000 1000 1000