<?xml version="1.0"?>
<VTKFile type="UnstructuredGrid" version="0.1" byte_order="LittleEndian">
  <UnstructuredGrid>
    <Piece NumberOfCells="1536" NumberOfPoints="1617">
      <PointData Scalars="pressure_w">
        <DataArray type="Float32" Name="pressure_w" NumberOfComponents="1" format="ascii">
          150941 150334 149670 149069 148280 147732 146836 146338 145357 144907 143854 143446
          142333 141965 140799 140467 139253 138955 137698 137432 136136 135900 134567 134360
          132991 132812 131410 131257 129823 129694 128231 128126 126634 126551 125034 124971
          123430 123387 121825 121801 120219 120214 118614 118629 117013 117048 115418 115474
          113831 113911 112255 112361 110694 110828 109150 109317 107628 107833 106135 106384
          104681 104978 103284 103633 102012 102366 149803 148547 147236 145879 144484 143060
          141613 140147 138668 137175 135673 134161 132640 131110 129572 128026 126473 124912
          123347 121778 120208 118640 117076 115520 113976 112448 110941 109458 108006 106589
          105217 103898 102639 149331 148082 146789 145456 144089 142695 141278 139843 138392
          136929 135454 133970 132476 130972 129458 127935 126401 124859 123310 121756 120201
          118646 117096 115555 114026 112516 111029 109569 108142 106752 105402 104100 102847
          148907 147662 146381 145066 143722 142353 140962 139553 138130 136694 135246 133789
          132322 130844 129355 127853 126339 124813 123278 121737 120193 118649 117108 115576
          114058 112560 111088 109648 108243 106873 105541 104250 103002 148521 147279 146007
          144707 143380 142032 140664 139279 137880 136469 135048 133617 132177 130727 129264
          127785 126288 124776 123252 121720 120184 118647 117113 115585 114069 112576 111116
          109693 108307 106956 105639 104358 103113 148165 146926 145661 144373 143061 141730
          140382 139018 137642 136255 134858 133455 132043 130623 129190 127735 126252 124750
          123234 121708 120177 118643 117111 115582 114059 112558 111104 109702 108337 107004
          105702 104429 103188 147836 146599 145340 144061 142762 141446 140115 138770 137414
          136049 134677 133299 131917 130530 129139 127720 126233 124739 123224 121701 120171
          118639 117106 115571 114042 112473 111042 109674 108336 107023 105734 104470 103231
          147530 146294 145040 143768 142480 141177 139861 138533 137196 135851 134501 133148
          131793 130442 129098 127788 126312 124730 123188 121650 120109 118565 117014 115446
          113802 112242 110941 109620 108311 107017 105741 104485 103248 147242 146007 144758
          143493 142214 140922 139619 138306 136985 135659 134328 132997 131668 130346 129039
          127762 126312 124696 123116 121551 119990 118424 116847 115242 113583 112107 110837
          109554 108269 106993 105729 104480 103245 146969 145736 144490 143231 141960 140678
          139386 138086 136780 135470 134157 132845 131537 130237 128953 127690 126248 124629
          123032 121451 119874 118294 116703 115092 113452 112002 110749 109485 108219 106957
          105703 104459 103227 146711 145479 144236 142981 141717 140443 139162 137873 136580
          135283 133985 132689 131397 130114 128843 127589 126153 124536 122935 121345 119760
          118174 116580 114974 113351 111915 110670 109418 108164 106912 105666 104426 103195
          146464 145233 143992 142742 141483 140217 138944 137665 136382 135097 133812 132529
          131250 129978 128717 127468 126038 124426 122826 121235 119649 118062 116471 114872
          113265 111840 110599 109354 108107 106862 105621 104385 103155 146227 144997 143758
          142512 141258 139997 138731 137461 136187 134912 133637 132364 131095 129832 128577
          127332 125908 124304 122709 121121 119537 117954 116370 114781 113187 111771 110533
          109291 108049 106808 105570 104336 103108 145998 144768 143532 142288 141039 139784
          138524 137260 135994 134727 133460 132195 130933 129677 128427 127185 125767 124172
          122584 121002 119424 117848 116273 114696 113116 111707 110469 109229 107989 106751
          105515 104283 103055 145776 144547 143312 142071 140825 139574 138320 137062 135802
          134542 133281 132023 130767 129516 128269 127029 125617 124032 122453 120879 119310
          117742 116177 114613 113049 111650 110407 109166 107928 106691 105457 104226 102998
          145561 144332 143098 141860 140616 139369 138119 136866 135611 134356 133101 131848
          130596 129349 128105 126867 125461 123887 122317 120753 119192 117635 116080 114529
          112982 111597 110342 109102 107864 106629 105396 104166 102938 145350 144122 142889
          141652 140412 139167 137921 136672 135421 134170 132919 131670 130422 129178 127937
          126699 125299 123736 122177 120622 119072 117525 115981 114441 112907 111527 110270
          109030 107792 106557 105325 104095 102867 145144 143916 142684 141449 140210 138968
          137724 136478 135231 133984 132736 131490 130245 129003 127764 126527 125133 123581
          122033 120488 118947 117411 115878 114349 112825 111450 110188 108948 107711 106476
          105243 104012 102784 144942 143714 142483 141249 140012 138772 137530 136287 135042
          133797 132552 131309 130066 128825 127587 126352 124963 123422 121884 120350 118820
          117293 115770 114252 112738 111367 110099 108860 107623 106388 105156 103926 102698
          144743 143516 142285 141052 139816 138577 137337 136096 134853 133610 132368 131126
          129885 128645 127408 126174 124790 123260 121732 120208 118688 117171 115659 114151
          112646 111279 110006 108768 107532 106298 105066 103836 102608 144548 143320 142090
          140857 139622 138385 137146 135906 134665 133424 132182 130941 129702 128463 127227
          125993 124615 123094 121576 120062 118552 117046 115544 114046 112551 111189 109910
          108673 107438 106204 104973 103744 102516 144354 143127 141897 140665 139430 138194
          136956 135717 134477 133237 131996 130756 129517 128279 127043 125809 124436 122925
          121416 119912 118412 116916 115425 113937 112453 111096 109812 108576 107342 106109
          104878 103649 102422 144164 142936 141707 140475 139241 138005 136768 135529 134290
          133050 131810 130570 129331 128094 126858 125624 124255 122752 121253 119758 118268
          116783 115302 113826 112352 111001 109713 108477 107244 106012 104782 103553 102326
          143975 142748 141518 140287 139053 137817 136580 135342 134103 132863 131623 130383
          129144 127907 126671 125437 124071 122576 121084 119598 118118 116644 115176 113711
          112250 110904 109612 108378 107146 105915 104685 103456 102228 143789 142562 141332
          140101 138867 137631 136394 135156 133916 132676 131435 130195 128956 127718 126481
          125247 123884 122394 120910 119433 117963 116501 115045 113594 112146 110807 109514
          108283 107052 105822 104593 103365 102138 143605 142378 141148 139917 138683 137447
          136210 134971 133730 132489 131248 130007 128766 127527 126290 125055 123694 122208
          120729 119260 117800 116350 114909 113473 112042 110711 109423 108194 106966 105738
          104511 103284 102058 143424 142196 140967 139735 138500 137264 136026 134787 133546
          132303 131060 129817 128575 127334 126095 124860 123498 122013 120538 119076 117627
          116191 114766 113349 111937 110617 109339 108112 106885 105658 104432 103206 101980
          143245 142017 140787 139555 138320 137084 135845 134604 133362 132118 130873 129628
          128383 127139 125898 124660 123296 121808 120334 118879 117442 116021 114615 113219
          111831 110524 109259 108032 106805 105579 104353 103127 101901 143068 141840 140610
          139377 138142 136905 135665 134423 133179 131934 130686 129438 128189 126941 125696
          124456 123084 121587 120112 118664 117239 115837 114452 113082 111723 110431 109179
          107952 106726 105501 104275 103049 101823 142894 141666 140436 139202 137966 136728
          135488 134244 132999 131751 130501 129248 127995 126740 125489 124244 122857 121341
          119863 118423 117015 115634 114275 112935 111610 110337 109098 107872 106647 105423
          104197 102972 101746 142723 141495 140264 139030 137793 136554 135312 134068 132821
          131571 130318 129061 127801 126538 125276 124020 122600 121052 119576 118152 116765
          115409 114079 112771 111488 110242 109015 107792 106568 105345 104120 102895 101669
          142555 141327 140095 138860 137622 136382 135140 133895 132646 131394 130138 128877
          127610 126336 125055 123783 122252 120690 119240 117843 116486 115160 113860 112585
          111338 110145 108930 107711 106490 105267 104043 102818 101592 142394 141162 139928
          138692 137454 136213 134970 133724 132475 131221 129963 128698 127426 126143 124841
          123483 121940 120465 119042 117666 116328 115019 113736 112477 111245 110053 108849
          107634 106414 105191 103968 102743 101517 142237 140998 139761 138524 137285 136044
          134800 133552 132301 131044 129782 128512 127231 125935 124611 123236 121804 120373
          118975 117614 116284 114981 113702 112443 111205 109983 108776 107560 106340 105117
          103893 102668 101442 142074 140829 139592 138354 137113 135870 134624 133374 132118
          130857 129589 128312 127021 125714 124380 123016 121629 120244 118877 117537 116222
          114929 113655 112398 111156 109928 108710 107490 106268 105044 103819 102594 101368
          141897 140655 139417 138177 136935 135689 134440 133186 131926 130660 129385 128100
          126803 125490 124159 122812 121457 120105 118769 117453 116155 114873 113605 112351
          111108 109875 108648 107422 106197 104972 103746 102520 101294 141716 140472 139234
          137992 136748 135500 134247 132989 131725 130454 129174 127886 126586 125276 123955
          122626 121298 119977 118669 117372 116088 114814 113551 112298 111054 109816 108584
          107355 106127 104900 103673 102446 101220 141530 140283 139044 137801 136554 135303
          134048 132786 131519 130246 128965 127676 126381 125078 123772 122465 121161 119865
          118575 117292 116017 114750 113490 112238 110993 109753 108518 107286 106056 104828
          103600 102373 101146 141338 140088 138848 137604 136356 135103 133845 132583 131315
          130042 128763 127480 126193 124903 123614 122326 121042 119760 118483 117209 115941
          114679 113422 112171 110926 109685 108449 107215 105984 104754 103526 102299 101072
          141143 139890 138649 137405 136156 134903 133645 132384 131118 129849 128577 127303
          126027 124752 123477 122203 120930 119658 118389 117123 115860 114602 113348 112099
          110854 109614 108377 107142 105910 104680 103451 102224 100997 140948 139691 138451
          137207 135960 134708 133453 132195 130935 129673 128409 127145 125880 124616 123351
          122086 120821 119556 118293 117033 115775 114520 113269 112022 110779 109539 108302
          107067 105835 104605 103376 102148 100921 140755 139496 138258 137016 135771 134523
          133273 132021 130768 129513 128258 127002 125745 124488 123230 121971 120712 119453
          118196 116940 115686 114435 113187 111942 110700 109461 108224 106990 105758 104528
          103299 102071 100844 140568 139308 138073 136835 135594 134352 133107 131861 130615
          129367 128118 126868 125617 124365 123111 121857 120603 119349 118096 116844 115594
          114347 113101 111858 110618 109380 108144 106911 105679 104449 103221 101993 100766
          140388 139132 137901 136667 135431 134193 132954 131714 130472 129229 127984 126739
          125492 124243 122994 121744 120494 119245 117996 116747 115501 114256 113013 111772
          110533 109297 108062 106829 105599 104369 103141 101914 100688 140218 138969 137741
          136511 135279 134045 132810 131573 130335 129096 127854 126612 125368 124123 122878
          121632 120386 119139 117894 116649 115405 114163 112923 111684 110447 109211 107978
          106746 105516 104288 103061 101835 100609 140055 138818 137593 136365 135136 133905
          132672 131438 130202 128965 127727 126487 125246 124004 122762 121519 120276 119034
          117791 116549 115309 114069 112831 111594 110358 109124 107892 106661 105432 104205
          102980 101756 100531 139904 138674 137451 136226 134998 133769 132538 131306 130072
          128837 127601 126363 125125 123886 122647 121407 120167 118927 117688 116449 115211
          113974 112737 111502 110268 109036 107805 106575 105347 104121 102897 101678 100457
          139740 138538 137316 136091 134865 133636 132406 131175 129943 128710 127476 126241
          125005 123769 122532 121295 120058 118821 117584 116348 115112 113877 112643 111409
          110177 108946 107716 106487 105259 104033 102810 101594 100408
        </DataArray>
        <DataArray type="Float32" Name="pressure_n" NumberOfComponents="1" format="ascii">
          150941 150334 149670 149069 148280 147732 146836 146338 145357 144907 143854 143446
          142333 141965 140799 140467 139253 138955 137698 137432 136136 135900 134567 134360
          132991 132812 131410 131257 129823 129694 128231 128126 126634 126551 125034 124971
          123430 123387 121825 121801 120219 120214 118614 118629 117013 117048 115418 115474
          113831 113911 112255 112361 110694 110828 109150 109317 107628 107833 106135 106384
          104681 104978 103284 103633 102012 102366 149803 148547 147236 145879 144484 143060
          141613 140147 138668 137175 135673 134161 132640 131110 129572 128026 126473 124912
          123347 121778 120208 118640 117076 115520 113976 112448 110941 109458 108006 106589
          105217 103898 102639 149331 148082 146789 145456 144089 142695 141278 139843 138392
          136929 135454 133970 132476 130972 129458 127935 126401 124859 123310 121756 120201
          118646 117096 115555 114026 112516 111029 109569 108142 106752 105402 104100 102847
          148907 147662 146381 145066 143722 142353 140962 139553 138130 136694 135246 133789
          132322 130844 129355 127853 126339 124813 123278 121737 120193 118649 117108 115576
          114058 112560 111088 109648 108243 106873 105541 104250 103002 148521 147279 146007
          144707 143380 142032 140664 139279 137880 136469 135048 133617 132177 130727 129264
          127785 126288 124776 123252 121720 120184 118647 117113 115585 114069 112576 111116
          109693 108307 106956 105639 104358 103113 148165 146926 145661 144373 143061 141730
          140382 139018 137642 136255 134858 133455 132043 130623 129190 127735 126252 124750
          123234 121708 120177 118643 117111 115582 114059 112558 111104 109702 108337 107004
          105702 104429 103188 147836 146599 145340 144061 142762 141446 140115 138770 137414
          136049 134677 133299 131917 130530 129139 127720 126233 124739 123224 121701 120171
          118639 117106 115571 114042 112473 111042 109674 108336 107023 105734 104470 103231
          147530 146294 145040 143768 142480 141177 139861 138533 137196 135851 134501 133148
          131793 130442 129098 127788 126312 124730 123188 121650 120109 118565 117014 115446
          113802 112242 110941 109620 108311 107017 105741 104485 103248 147242 146007 144758
          143493 142214 140922 139619 138306 136985 135659 134328 132997 131668 130346 129039
          127762 126312 124696 123116 121551 119990 118424 116847 115242 113583 112107 110837
          109554 108269 106993 105729 104480 103245 146969 145736 144490 143231 141960 140678
          139386 138086 136780 135470 134157 132845 131537 130237 128953 127690 126248 124629
          123032 121451 119874 118294 116703 115092 113452 112002 110749 109485 108219 106957
          105703 104459 103227 146711 145479 144236 142981 141717 140443 139162 137873 136580
          135283 133985 132689 131397 130114 128843 127589 126153 124536 122935 121345 119760
          118174 116580 114974 113351 111915 110670 109418 108164 106912 105666 104426 103195
          146464 145233 143992 142742 141483 140217 138944 137665 136382 135097 133812 132529
          131250 129978 128717 127468 126038 124426 122826 121235 119649 118062 116471 114872
          113297 111868 110599 109354 108107 106862 105621 104385 103155 146227 144997 143758
          142512 141258 139997 138731 137461 136187 134912 133637 132364 131095 129832 128577
          127332 125908 124304 122709 121121 119537 117954 116370 114788 113495 111834 110533
          109291 108049 106808 105570 104336 103108 145998 144768 143532 142288 141039 139784
          138524 137260 135994 134727 133460 132195 130933 129677 128427 127185 125767 124172
          122584 121002 119424 117848 116273 114738 113601 111807 110490 109249 108009 106770
          105533 104298 103061 145776 144547 143312 142071 140825 139574 138320 137062 135802
          134542 133281 132023 130767 129516 128269 127029 125617 124032 122453 120879 119310
          117742 116177 114688 113584 111795 110491 109248 108010 106773 105539 104308 103068
          145561 144332 143098 141860 140616 139369 138119 136866 135611 134356 133101 131848
          130596 129349 128105 126867 125461 123887 122317 120753 119192 117635 116081 114632
          113573 111782 110481 109241 108005 106771 105539 104311 103085 145350 144122 142889
          141652 140412 139167 137921 136672 135421 134170 132919 131670 130422 129178 127937
          126699 125299 123736 122177 120622 119072 117525 115982 114562 113526 111736 110423
          109182 107946 106713 105481 104253 103027 145144 143916 142684 141449 140210 138968
          137724 136478 135231 133984 132736 131490 130245 129003 127764 126527 125133 123581
          122033 120488 118947 117411 115879 114485 113466 111676 110348 109106 107869 106635
          105403 104173 102945 144942 143714 142483 141249 140012 138772 137530 136287 135042
          133797 132552 131309 130066 128825 127587 126352 124963 123422 121884 120350 118820
          117293 115772 114401 113397 111606 110262 109020 107783 106549 105316 104086 102859
          144743 143516 142285 141052 139816 138577 137337 136096 134853 133610 132368 131126
          129885 128645 127408 126174 124790 123260 121732 120208 118688 117171 115660 114312
          113321 111531 110171 108928 107692 106458 105226 103997 102769 144548 143320 142090
          140857 139622 138385 137146 135906 134665 133424 132182 130941 129702 128463 127227
          125993 124615 123094 121576 120062 118552 117046 115546 114219 113241 111450 110076
          108834 107599 106365 105134 103904 102677 144354 143127 141897 140665 139430 138194
          136956 135717 134477 133237 131996 130756 129517 128279 127043 125809 124436 122925
          121416 119912 118412 116916 115427 114123 113157 111367 109979 108737 107503 106270
          105039 103810 102583 144164 142936 141707 140475 139241 138005 136768 135529 134290
          133050 131810 130570 129331 128094 126858 125624 124255 122752 121253 119758 118268
          116783 115305 114024 113070 111280 109880 108638 107405 106173 104942 103714 102487
          143975 142748 141518 140287 139053 137817 136580 135342 134103 132863 131623 130383
          129144 127907 126671 125437 124071 122576 121084 119598 118118 116644 115179 113921
          112980 111190 109776 108535 107301 106069 104838 103607 102377 143789 142562 141332
          140101 138867 137631 136394 135156 133916 132676 131435 130195 128956 127718 126481
          125247 123884 122394 120910 119433 117963 116501 115048 113815 112888 111098 109671
          108429 107196 105962 104729 103494 102253 143605 142378 141148 139917 138683 137447
          136210 134971 133730 132489 131248 130007 128766 127527 126290 125055 123694 122208
          120729 119260 117800 116350 114913 113707 112795 111005 109568 108327 107094 105861
          104627 103391 102126 143424 142196 140967 139735 138500 137264 136026 134787 133546
          132303 131060 129817 128575 127334 126095 124860 123498 122013 120538 119076 117627
          116191 114771 113596 112702 110911 109470 108229 106996 105763 104524 103273 102005
          143245 142017 140787 139555 138320 137084 135845 134604 133362 132118 130873 129628
          128383 127139 125898 124660 123296 121808 120334 118879 117442 116021 114621 113482
          112608 110818 109375 108133 106895 105654 104408 103160 101909 143068 141840 140610
          139377 138142 136905 135665 134423 133179 131934 130686 129438 128189 126941 125696
          124456 123084 121587 120112 118664 117239 115837 114459 113362 112513 110723 109280
          108024 106784 105543 104302 103062 101825 142894 141666 140436 139202 137966 136728
          135488 134244 132999 131751 130501 129248 127995 126740 125489 124244 122857 121341
          119863 118423 117015 115634 114284 113238 112417 110626 109173 107915 106678 105442
          104208 102975 101746 142723 141495 140264 139030 137793 136554 135312 134068 132821
          131571 130318 129061 127801 126538 125276 124020 122600 121052 119576 118152 116765
          115409 114092 113109 112317 110527 109062 107813 106581 105351 104122 102895 101669
          142555 141327 140095 138860 137622 136382 135140 133895 132646 131394 130138 128877
          127610 126336 125055 123783 122252 120690 119240 117865 116527 115220 113993 113179
          112381 110389 108955 107718 106493 105268 104043 102818 101592 142526 141266 140035
          138802 137567 136329 135090 133847 132601 131351 130097 128837 127570 126292 124997
          123647 122124 120656 119236 117861 116524 115217 113935 112675 111445 110262 108858
          107634 106414 105191 103968 102743 101517 142395 141121 139886 138652 137416 136178
          134937 133692 132444 131191 129932 128666 127390 126099 124780 123412 121989 120560
          119162 117799 116468 115163 113881 112619 111377 110148 108777 107560 106340 105117
          103893 102668 101442 142252 140965 139729 138493 137256 136015 134772 133524 132272
          131014 129749 128475 127188 125884 124555 123195 121810 120423 119053 117708 116389
          115091 113812 112549 111299 110058 108710 107490 106268 105044 103819 102594 101368
          142093 140800 139562 138325 137085 135842 134595 133344 132087 130823 129551 128269
          126974 125663 124334 122987 121630 120273 118931 117608 116303 115014 113739 112477
          111224 109975 108648 107422 106197 104972 103746 102520 101294 141928 140625 139386
          138147 136905 135658 134408 133152 131890 130620 129343 128056 126757 125447 124124
          122793 121459 120131 118814 117509 116216 114935 113664 112402 111140 109871 108584
          107355 106127 104900 103673 102446 101220 141755 140441 139201 137960 136715 135466
          134211 132952 131686 130413 129132 127844 126547 125243 123932 122619 121308 120002
          118703 117411 116128 114851 113577 112306 111039 109776 108518 107286 106056 104828
          103600 102373 101146 141576 140250 139008 137766 136519 135267 134010 132748 131480
          130207 128927 127642 126352 125058 123762 122466 121172 119881 118594 117311 116028
          114748 113474 112207 110946 109693 108449 107215 105984 104754 103526 102299 101072
          141394 140054 138811 137567 136319 135066 133809 132547 131280 130009 128734 127455
          126175 124893 123610 122327 121045 119764 118479 117195 115915 114641 113374 112114
          110861 109615 108377 107142 105910 104680 103451 102224 100997 141211 139857 138613
          137369 136121 134869 133612 132353 131090 129824 128556 127286 126015 124742 123469
          122195 120918 119635 118354 117076 115804 114538 113279 112026 110779 109539 108302
          107067 105835 104605 103376 102148 100921 141030 139661 138417 137175 135928 134678
          133426 132170 130913 129653 128393 127130 125866 124601 123334 122059 120781 119503
          118230 116961 115698 114440 113188 111942 110700 109461 108224 106990 105758 104528
          103299 102071 100844 140854 139471 138228 136988 135745 134499 133251 132000 130749
          129495 128240 126983 125724 124460 123190 121917 120645 119376 118111 116852 115597
          114347 113101 111858 110618 109380 108144 106911 105679 104449 103221 101993 100766
          140685 139290 138050 136812 135573 134331 133087 131841 130594 129345 128093 126839
          125577 124311 123044 121778 120515 119255 118000 116748 115501 114256 113013 111772
          110533 109297 108062 106829 105599 104369 103141 101914 100688 140522 139120 137881
          136647 135411 134172 132932 131689 130445 129198 127945 126687 125426 124165 122905
          121647 120392 119141 117894 116649 115405 114163 112923 111684 110447 109211 107978
          106746 105516 104288 103061 101835 100609 140363 138960 137723 136491 135257 134021
          132783 131542 130296 129045 127791 126536 125280 124026 122773 121524 120277 119034
          117791 116549 115309 114069 112831 111594 110358 109124 107892 106661 105432 104205
          102980 101756 100531 140202 138806 137571 136341 135108 133874 132633 131389 130141
          128891 127640 126390 125141 123894 122649 121407 120167 118927 117688 116449 115211
          113974 112737 111502 110268 109036 107805 106575 105347 104121 102897 101678 100457
          140010 138661 137429 136199 134966 133728 132487 131242 129996 128749 127502 126256
          125012 123770 122532 121295 120058 118821 117584 116348 115112 113877 112643 111409
          110177 108946 107716 106487 105259 104033 102810 101594 100408
        </DataArray>
        <DataArray type="Float32" Name="density_w" NumberOfComponents="1" format="ascii">
          1000 1000 1000 1000 1000 1000 1000 1000 1000 1000 1000 1000
          1000 1000 1000 1000 1000 1000 1000 1000 1000 1000 1000 1000
          1000 1000 1000 1000 1000 1000 1000 1000 1000 1000 1000 1000
          1000 1000 1000 1000 1000 1000 1000 1000 1000 1000 1000 1000
          1000 1000 1000 1000 1000 1000 1000 1000 1000 1000 1000 1000
          1000 1000 1000 1000 1000 1000 1000 1000 1000 1000 1000 1000
          1000 1000 1000 1000 1000 1000 1000 1000 1000 1000 1000 1000
          1000 1000 1000 1000 1000 1000 1000 1000 1000 1000 1000 1000
          1000 1000 1000 1000 1000 1000 1000 1000 1000 1000 1000 1000
          1000 1000 1000 1000 1000 1000 1000 1000 1000 1000 1000 1000
          1000 1000 1000 1000 1000 1000 1000 1000 1000 1000 1000 1000
          1000 1000 1000 1000 1000 1000 1000 1000 1000 1000 1000 1000
          1000 1000 1000 1000 1000 1000 1000 1000 1000 1000 1000 1000
          1000 1000 1000 1000 1000 1000 1000 1000 1000 1000 1000 1000
          1000 1000 1000 1000 1000 1000 1000 1000 1000 1000 1000 1000
          1000 1000 1000 1000 1000 1000 1000 1000 1000 1000 1000 1000
          1000 1000 1000 1000 1000 1000 1000 1000 1000 1000 1000 1000
          1000 1000 1000 1000 1000 1000 1000 1000 1000 1000 1000 1000
          1000 1000 1000 1000 1000 1000 1000 1000 1000 1000 1000 1000
          1000 1000 1000 1000 1000 1000 1000 1000 1000 1000 1000 1000
          1000 1000 1000 1000 1000 1000 1000 1000 1000 1000 1000 1000
          1000 1000 1000 1000 1000 1000 1000 1000 1000 1000 1000 1000
          1000 1000 1000 1000 1000 1000 1000 1000 1000 1000 1000 1000
          1000 1000 1000 1000 1000 1000 1000 1000 1000 1000 1000 1000
          1000 1000 1000 1000 1000 1000 1000 1000 1000 1000 1000 1000
          1000 1000 1000 1000 1000 1000 1000 1000 1000 1000 1000 1000
          1000 1000 1000 1000 1000 1000 1000 1000 1000 1000 1000 1000
          1000 1000 1000 1000 1000 1000 1000 1000 1000 1000 1000 1000
          1000 1000 1000 1000 1000 1000 1000 1000 1000 1000 1000 1000
          1000 1000 1000 1000 1000 1000 1000 1000 1000 1000 1000 1000
          1000 1000 1000 1000 1000 1000 1000 1000 1000 1000 1000 1000
          1000 1000 1000 1000 1000 1000 1000 1000 1000 1000 1000 1000
          1000 1000 1000 1000 1000 1000 1000 1000 1000 1000 1000 1000
          1000 1000 1000 1000 1000 1000 1000 1000 1000 1000 1000 1000
          1000 1000 1000 1000 1000 1000 1000 1000 1000 1000 1000 1000
          1000 1000 1000 1000 1000 1000 1000 1000 1000 1000 1000 1000
          1000 1000 1000 1000 1000 1000 1000 1000 1000 1000 1000 1000
          1000 1000 1000 1000 1000 1000 1000 1000 1000 1000 1000 1000
          1000 1000 1000 1000 1000 1000 1000 1000 1000 1000 1000 1000
          1000 1000 1000 1000 1000 1000 1000 1000 1000 1000 1000 1000
          1000 1000 1000 1000 1000 1000 1000 1000 1000 1000 1000 1000
          1000 1000 1000 1000 1000 1000 1000 1000 1000 1000 1000 1000
          1000 1000 1000 1000 1000 1000 1000 1000 1000 1000 1000 1000
          1000 1000 1000 1000 1000 1000 1000 1000 1000 1000 1000 1000
          1000 1000 1000 1000 1000 1000 1000 1000 1000 1000 1000 1000
          1000 1000 1000 1000 1000 1000 1000 1000 1000 1000 1000 1000
          1000 1000 1000 1000 1000 1000 1000 1000 1000 1000 1000 1000
          1000 1000 1000 1000 1000 1000 1000 1000 1000 1000 1000 1000
          1000 1000 1000 1000 1000 1000 1000 1000 1000 1000 1000 1000
          1000 1000 1000 1000 1000 1000 1000 1000 1000 1000 1000 1000
          1000 1000 1000 1000 1000 1000 1000 1000 1000 1000 1000 1000
          1000 1000 1000 1000 1000 1000 1000 1000 1000 1000 1000 1000
          1000 1000 1000 1000 1000 1000 1000 1000 1000 1000 1000 1000
          1000 1000 1000 1000 1000 1000 1000 1000 1000 1000 1000 1000
          1000 1000 1000 1000 1000 1000 1000 1000 1000 1000 1000 1000
          1000 1000 1000 1000 1000 1000 1000 1000 1000 1000 1000 1000
          1000 1000 1000 1000 1000 1000 1000 1000 1000 1000 1000 1000
          1000 1000 1000 1000 1000 1000 1000 1000 1000 1000 1000 1000
          1000 1000 1000 1000 1000 1000 1000 1000 1000 1000 1000 1000