<?xml version="1.0"?>
<VTKFile type="UnstructuredGrid" version="0.1" byte_order="LittleEndian">
  <UnstructuredGrid>
    <Piece NumberOfCells="1536" NumberOfPoints="1617">
      <PointData Scalars="pressure_w">
        <DataArray type="Float32" Name="pressure_w" NumberOfComponents="1" format="ascii">
          153300 152232 151806 150906 150176 149433 148523 147889 146860 146310 145193 144710
          143523 143097 141851 141475 140178 139847 138503 138213 136827 136576 135151 134935
          133474 133291 131796 131643 130118 129993 128438 128339 126758 126681 125078 125021
          123397 123358 121716 121694 120034 120029 118353 118365 116672 116703 114992 115043
          113313 113389 111635 111743 109960 110105 108287 108481 106619 106876 104958 105297
          103310 103768 101708 102349 100626 101064 151426 150140 148750 147287 145778 144239
          142679 141105 139520 137927 136328 134722 133111 131494 129871 128242 126607 124966
          123321 121673 120024 118375 116730 115090 113459 111840 110238 108658 107106 105594
          104140 102768 101491 150750 149482 148137 146729 145275 143787 142275 140745 139202
          137648 136085 134515 132937 131351 129756 128152 126538 124916 123287 121653 120018
          118383 116752 115128 113516 111922 110350 108807 107299 105836 104427 103086 101820
          150162 148905 147587 146217 144804 143359 141889 140399 138894 137377 135851 134315
          132771 131217 129651 128071 126478 124872 123257 121636 120011 118387 116767 115154
          113556 111980 110433 108921 107450 106022 104646 103326 102068 149639 148388 147089
          145746 144366 142956 141521 140067 138598 137116 135625 134124 132615 131095 129560
          128005 126430 124838 123233 121621 120005 118388 116774 115167 113575 112009 110480
          108996 107556 106159 104807 103504 102252 149167 147920 146634 145312 143958 142577
          141173 139750 138313 136865 135407 133942 132469 130987 129489 127962 126400 124815
          123218 121611 119999 118385 116773 115167 113568 111996 110482 109027 107619 106250
          104920 103631 102383 148735 147492 146217 144911 143577 142220 140842 139448 138040
          136622 135197 133766 132331 130892 129447 127965 126385 124808 123210 121605 119994
          118382 116769 115156 113552 111905 110423 109016 107643 106302 104992 103715 102472
          148338 147098 145830 144537 143221 141883 140528 139159 137777 136388 134992 133594
          132196 130802 129419 128083 126516 124820 123186 121559 119934 118306 116671 115018
          113274 111639 110318 108972 107638 106323 105032 103766 102526 147968 146730 145470
          144187 142885 141564 140229 138881 137523 136159 134790 133422 132057 130702 129369
          128073 126552 124815 123131 121470 119817 118162 116494 114795 113030 111493 110213
          108913 107612 106322 105046 103789 102553 147622 146386 145131 143857 142567 141261
          139942 138613 137276 135933 134589 133246 131909 130584 129280 128005 126498 124760
          123057 121375 119702 118029 116344 114635 112892 111386 110126 108853 107576 106304
          105041 103792 102558 147295 146061 144810 143544 142264 140970 139666 138353 137034
          135710 134386 133065 131750 130447 129161 127898 126400 124669 122961 121271 119589
          117907 116218 114514 112791 111303 110053 108795 107534 106275 105023 103780 102548
          146986 145752 144506 143246 141974 140691 139399 138100 136795 135488 134181 132877
          131579 130292 129018 127763 126274 124553 122849 121158 119475 117793 116107 114413
          112708 111233 109990 108741 107490 106240 104995 103757 102526 146690 145457 144214
          142959 141694 140421 139139 137852 136560 135266 133973 132683 131399 130123 128858
          127607 126128 124419 122723 121038 119359 117683 116005 114323 112636 111171 109931
          108688 107444 106200 104960 103725 102496 146405 145174 143933 142683 141424 140158
          138885 137608 136327 135044 133762 132483 131209 129942 128684 127437 125966 124272
          122587 120911 119241 117574 115907 114239 112569 111114 109876 108637 107396 106157
          104921 103688 102459 146131 144901 143662 142416 141162 139902 138636 137367 136095
          134821 133549 132279 131013 129752 128500 127255 125793 124114 122443 120779 119120
          117465 115812 114159 112505 111060 109824 108586 107348 106112 104877 103646 102418
          145865 144636 143399 142155 140906 139651 138392 137129 135864 134598 133333 132070
          130810 129555 128306 127064 125611 123948 122291 120641 118995 117354 115715 114079
          112444 111009 109772 108534 107298 106063 104830 103600 102372 145607 144378 143142
          141901 140655 139405 138150 136893 135634 134374 133115 131857 130603 129352 128106
          126866 125422 123775 122134 120498 118867 117240 115617 113997 112382 110960 109717
          108480 107243 106009 104776 103546 102318 145354 144125 142891 141653 140409 139162
          137912 136659 135405 134150 132895 131642 130391 129144 127900 126661 125226 123596
          121970 120350 118734 117122 115515 113912 112314 110901 109655 108416 107180 105945
          104712 103481 102253 145107 143878 142645 141408 140167 138923 137676 136426 135176
          133925 132674 131424 130177 128932 127690 126452 125026 123412 121802 120197 118597
          117001 115409 113821 112239 110832 109586 108347 107111 105876 104643 103413 102186
          144864 143636 142404 141168 139929 138687 137442 136195 134948 133699 132451 131204
          129959 128716 127476 126239 124821 123224 121630 120041 118455 116875 115298 113726
          112158 110758 109512 108274 107038 105804 104572 103342 102115 144625 143397 142166
          140931 139693 138453 137210 135966 134720 133474 132228 130983 129739 128498 127259
          126022 124613 123031 121453 119879 118310 116744 115183 113626 112072 110680 109435
          108198 106963 105730 104498 103268 102041 144390 143162 141931 140697 139460 138221
          136980 135737 134493 133248 132004 130760 129518 128277 127039 125803 124401 122835
          121272 119714 118160 116610 115064 113522 111984 110599 109355 108120 106886 105653
          104422 103193 101965 144158 142930 141700 140466 139230 137992 136751 135509 134266
          133022 131779 130536 129294 128054 126816 125580 124186 122634 121087 119544 118005
          116472 114942 113416 111891 110513 109273 108039 106806 105574 104344 103115 101887
          143929 142701 141471 140238 139002 137764 136524 135283 134040 132797 131553 130310
          129069 127828 126591 125355 123968 122430 120897 119369 117846 116329 114816 113306
          111797 110425 109189 107957 106725 105494 104264 103035 101808 143703 142475 141245
          140012 138776 137538 136299 135057 133815 132571 131327 130084 128842 127601 126363
          125127 123746 122221 120701 119188 117682 116182 114688 113196 111705 110338 109109
          107879 106649 105419 104190 102961 101734 143479 142252 141021 139788 138553 137315
          136075 134833 133590 132346 131101 129856 128613 127371 126132 124896 123520 122005
          120498 119000 117511 116030 114556 113086 111616 110263 109037 107809 106579 105350
          104122 102895 101668 143259 142031 140801 139567 138332 137093 135853 134610 133366
          132121 130874 129628 128382 127139 125898 124661 123288 121782 120287 118803 117332
          115871 114420 112975 111532 110196 108969 107741 106512 105284 104056 102829 101603
          143041 141813 140582 139349 138113 136874 135633 134390 133144 131897 130648 129399
          128150 126903 125660 124421 123049 121548 120062 118593 117141 115703 114278 112861
          111449 110130 108901 107673 106445 105218 103990 102763 101537 142826 141598 140367
          139134 137897 136658 135416 134171 132923 131674 130422 129169 127916 126664 125416
          124175 122800 121299 119820 118367 116936 115523 114126 112741 111363 110062 108834
          107606 106378 105151 103924 102697 101470 142614 141386 140155 138921 137684 136444
          135201 133955 132705 131453 130198 128940 127681 126422 125166 123919 122534 121024
          119552 118118 116712 115328 113963 112613 111274 109993 108766 107538 106311 105084
          103857 102630 101403 142405 141177 139946 138712 137474 136233 134989 133741 132490
          131235 129976 128713 127446 126177 124909 123650 122235 120704 119248 117841 116466
          115115 113785 112473 111180 109924 108698 107471 106244 105016 103789 102562 101336
          142199 140971 139740 138505 137267 136026 134781 133532 132279 131021 129758 128490
          127214 125931 124641 123364 121834 120310 118899 117532 116196 114882 113588 112315
          111068 109857 108630 107404 106176 104949 103722 102495 101268 141996 140768 139537
          138302 137064 135822 134576 133326 132072 130812 129546 128273 126990 125695 124379
          123004 121482 120070 118700 117361 116047 114753 113479 112223 110988 109786 108564
          107337 106109 104881 103654 102426 101200 141797 140569 139338 138103 136865 135622
          134376 133126 131870 130609 129341 128065 126778 125477 124151 122788 121396 120014
          118660 117330 116021 114730 113456 112198 110957 109727 108500 107271 106042 104813
          103585 102358 101131 141601 140373 139142 137907 136669 135427 134180 132930 131674
          130412 129144 127868 126581 125280 123963 122626 121277 119931 118597 117279 115977
          114690 113417 112158 110910 109671 108437 107205 105974 104745 103516 102288 101061
          141409 140181 138950 137715 136477 135235 133989 132739 131483 130222 128955 127680
          126396 125102 123795 122478 121155 119833 118517 117211 115917 114635 113365 112105
          110854 109611 108373 107138 105906 104675 103446 102217 100991 141220 139992 138761
          137526 136289 135047 133802 132552 131298 130039 128774 127502 126222 124935 123640
          122338 121032 119727 118426 117131 115846 114569 113302 112043 110791 109546 108306
          107070 105836 104604 103374 102146 100919 141034 139806 138575 137341 136104 134863
          133619 132371 131118 129861 128599 127331 126057 124777 123491 122201 120909 119617
          118328 117043 115765 114494 113230 111973 110722 109476 108235 106998 105763 104531
          103301 102072 100845 140851 139623 138392 137159 135923 134683 133440 132194 130943
          129689 128430 127166 125897 124624 123347 122067 120785 119504 118224 116948 115677
          114411 113151 111896 110647 109402 108161 106924 105689 104457 103226 101998 100771
          140670 139443 138213 136980 135745 134507 133265 132021 130772 129521 128265 127006
          125742 124476 123206 121934 120661 119389 118117 116849 115584 114323 113067 111815
          110567 109324 108083 106846 105612 104380 103150 101921 100694 140492 139265 138036
          136804 135570 134333 133093 131851 130605 129356 128104 126849 125591 124330 123067
          121802 120537 119272 118008 116746 115487 114230 112978 111729 110484 109242 108003
          106767 105533 104301 103072 101843 100617 140317 139090 137861 136630 135397 134162
          132924 131684 130441 129195 127947 126696 125443 124187 122930 121672 120413 119154
          117896 116640 115386 114134 112885 111640 110397 109157 107919 106684 105452 104221
          102992 101764 100538 140142 138916 137688 136458 135227 133994 132758 131520 130280
          129037 127792 126545 125296 124046 122794 121541 120288 119035 117783 116532 115283
          114035 112790 111547 110307 109069 107833 106600 105368 104139 102911 101684 100458
          139969 138743 137516 136289 135059 133828 132594 131358 130121 128881 127640 126397
          125152 123906 122659 121411 120163 118916 117669 116422 115177 113934 112692 111452
          110214 108979 107745 106513 105283 104056 102829 101604 100378 139796 138570 137346
          136121 134893 133664 132432 131199 129964 128727 127489 126249 125009 123767 122525
          121282 120039 118796 117553 116311 115070 113831 112592 111355 110120 108886 107654
          106424 105196 103971 102747 101523 100299 139620 138397 137177 135955 134730 133502
          132272 131041 129808 128574 127339 126103 124866 123629 122391 121152 119914 118675
          117437 116199 114962 113726 112491 111257 110024 108792 107562 106334 105107 103883
          102663 101445 100223 139434 138220 137012 135793 134568 133342 132114 130884 129654
          128422 127191 125958 124725 123491 122257 121023 119789 118554 117320 116087 114853
          113621 112389 111157 109927 108697 107468 106241 105015 103792 102575 101371 100160
          139177 138065 136855 135634 134410 133183 131956 130728 129500 128272 127043 125813
          124584 123354 122124 120894 119664 118434 117204 115974 114744 113515 112286 111057
          109828 108601 107373 106146 104921 103697 102477 101272 100183
        </DataArray>
        <DataArray type="Float32" Name="pressure_n" NumberOfComponents="1" format="ascii">
          153300 152232 151806 150906 150176 149433 148523 147889 146860 146310 145193 144710
          143523 143097 141851 141475 140178 139847 138503 138213 136827 136576 135151 134935
          133474 133291 131796 131643 130118 129993 128438 128339 126758 126681 125078 125021
          123397 123358 121716 121694 120034 120029 118353 118365 116672 116703 114992 115043
          113313 113389 111635 111743 109960 110105 108287 108481 106619 106876 104958 105297
          103310 103768 101708 102349 100626 101064 151426 150140 148750 147287 145778 144239
          142679 141105 139520 137927 136328 134722 133111 131494 129871 128242 126607 124966
          123321 121673 120024 118375 116730 115090 113459 111840 110238 108658 107106 105594
          104140 102768 101491 150750 149482 148137 146729 145275 143787 142275 140745 139202
          137648 136085 134515 132937 131351 129756 128152 126538 124916 123287 121653 120018
          118383 116752 115128 113516 111922 110350 108807 107299 105836 104427 103086 101820
          150162 148905 147587 146217 144804 143359 141889 140399 138894 137377 135851 134315
          132771 131217 129651 128071 126478 124872 123257 121636 120011 118387 116767 115154
          113556 111980 110433 108921 107450 106022 104646 103326 102068 149639 148388 147089
          145746 144366 142956 141521 140067 138598 137116 135625 134124 132615 131095 129560
          128005 126430 124838 123233 121621 120005 118388 116774 115167 113575 112009 110480
          108996 107556 106159 104807 103504 102252 149167 147920 146634 145312 143958 142577
          141173 139750 138313 136865 135407 133942 132469 130987 129489 127962 126400 124815
          123218 121611 119999 118385 116773 115167 113568 111996 110482 109027 107619 106250
          104920 103631 102383 148735 147492 146217 144911 143577 142220 140842 139448 138040
          136622 135197 133766 132331 130892 129447 127965 126385 124808 123210 121605 119994
          118382 116769 115156 113552 111905 110423 109016 107643 106302 104992 103715 102472
          148338 147098 145830 144537 143221 141883 140528 139159 137777 136388 134992 133594
          132196 130802 129419 128083 126516 124820 123186 121559 119934 118306 116671 115018
          113274 111639 110318 108972 107638 106323 105032 103766 102526 147968 146730 145470
          144187 142885 141564 140229 138881 137523 136159 134790 133422 132057 130702 129369
          128073 126552 124815 123131 121470 119817 118162 116494 114795 113030 111493 110213
          108913 107612 106322 105046 103789 102553 147622 146386 145131 143857 142567 141261
          139942 138613 137276 135933 134589 133246 131909 130584 129280 128005 126498 124760
          123057 121375 119702 118029 116344 114635 112892 111386 110126 108853 107576 106304
          105041 103792 102558 147295 146061 144810 143544 142264 140970 139666 138353 137034
          135710 134386 133065 131750 130447 129161 127898 126400 124669 122961 121271 119589
          117907 116218 114514 112791 111303 110053 108795 107534 106275 105023 103780 102548
          146986 145752 144506 143246 141974 140691 139399 138100 136795 135488 134181 132877
          131579 130292 129018 127763 126274 124553 122849 121158 119475 117793 116107 114413
          112708 111233 109990 108741 107490 106240 104995 103757 102526 146690 145457 144214
          142959 141694 140421 139139 137852 136560 135266 133973 132683 131399 130123 128858
          127607 126128 124419 122723 121038 119359 117683 116005 114323 112636 111171 109931
          108688 107444 106200 104960 103725 102496 146405 145174 143933 142683 141424 140158
          138885 137608 136327 135044 133762 132483 131209 129942 128684 127437 125966 124272
          122587 120911 119241 117574 115907 114239 112569 111114 109876 108637 107397 106159
          104924 103693 102463 146131 144901 143662 142416 141162 139902 138636 137367 136095
          134821 133549 132279 131013 129752 128500 127255 125793 124114 122443 120779 119120
          117465 115812 114159 112506 111076 109844 108627 107409 106187 104962 103734 102496
          145865 144636 143399 142155 140906 139651 138392 137129 135864 134598 133333 132070
          130810 129555 128306 127064 125611 123948 122291 120641 118995 117354 115715 114079
          112507 111129 109888 108661 107433 106203 104973 103745 102520 145607 144378 143142
          141901 140655 139405 138150 136893 135634 134374 133115 131857 130603 129352 128106
          126866 125422 123775 122134 120498 118867 117240 115617 113998 112812 111120 109861
          108628 107395 106163 104933 103704 102478 145354 144125 142891 141653 140409 139162
          137912 136659 135405 134150 132895 131642 130391 129144 127900 126661 125226 123596
          121970 120350 118734 117122 115515 113913 112822 111077 109806 108570 107336 106103
          104871 103642 102414 145107 143878 142645 141408 140167 138923 137676 136426 135176
          133925 132674 131424 130177 128932 127690 126452 125026 123412 121802 120197 118597
          117001 115409 113822 112776 111016 109739 108503 107269 106035 104804 103574 102346
          144864 143636 142404 141168 139929 138687 137442 136195 134948 133699 132451 131204
          129959 128716 127476 126239 124821 123224 121630 120041 118455 116875 115298 113727
          112712 110947 109666 108430 107197 105964 104732 103503 102275 144625 143397 142166
          140931 139693 138453 137210 135966 134720 133474 132228 130983 129739 128498 127259
          126022 124613 123031 121453 119879 118310 116744 115183 113627 112639 110872 109590
          108355 107121 105889 104658 103429 102202 144390 143162 141931 140697 139460 138221
          136980 135737 134493 133248 132004 130760 129518 128277 127039 125803 124401 122835
          121272 119714 118160 116610 115064 113524 112559 110791 109510 108276 107044 105812
          104582 103353 102126 144158 142930 141700 140466 139230 137992 136751 135509 134266
          133022 131779 130536 129294 128054 126816 125580 124186 122634 121087 119544 118005
          116472 114942 113417 112470 110704 109426 108194 106963 105733 104503 103275 102048
          143929 142701 141471 140238 139002 137764 136524 135283 134040 132797 131553 130310
          129069 127828 126591 125355 123968 122430 120897 119369 117846 116329 114816 113307
          112355 110605 109335 108105 106875 105645 104415 103185 101957 143703 142475 141245
          140012 138776 137538 136299 135057 133815 132571 131327 130084 128842 127601 126363
          125127 123746 122221 120701 119188 117682 116182 114688 113197 112141 110499 109234
          108007 106779 105549 104318 103085 101846 143479 142252 141021 139788 138553 137315
          136075 134833 133590 132346 131101 129856 128613 127371 126132 124896 123520 122005
          120498 119000 117511 116030 114556 113086 111763 110396 109110 107894 106672 105446
          104215 102977 101718 143259 142031 140801 139567 138332 137093 135853 134610 133366
          132121 130874 129628 128382 127139 125898 124661 123288 121782 120287 118803 117332
          115871 114420 112975 111539 110275 108973 107749 106525 105299 104071 102839 101606
          143041 141813 140582 139349 138113 136874 135633 134390 133144 131897 130648 129399
          128150 126903 125660 124421 123049 121548 120062 118593 117141 115703 114278 112861
          111449 110134 108901 107673 106445 105218 103990 102763 101537 142826 141598 140367
          139134 137897 136658 135416 134171 132923 131674 130422 129169 127916 126664 125416
          124175 122800 121299 119820 118367 116936 115523 114126 112741 111363 110062 108834
          107606 106378 105151 103924 102697 101470 142614 141386 140155 138921 137684 136444
          135201 133955 132705 131453 130198 128940 127681 126422 125166 123919 122534 121024
          119552 118118 116712 115328 113963 112613 111274 109993 108766 107538 106311 105084
          103857 102630 101403 142405 141177 139946 138712 137474 136233 134989 133741 132490
          131235 129976 128713 127446 126177 124909 123650 122235 120704 119248 117841 116466
          115115 113785 112473 111180 109924 108698 107471 106244 105016 103789 102562 101336
          142199 140971 139740 138505 137267 136026 134781 133532 132279 131021 129758 128490
          127214 125931 124641 123364 121834 120310 118899 117532 116196 114882 113588 112315
          111068 109857 108630 107404 106176 104949 103722 102495 101268 141996 140768 139537
          138302 137064 135822 134576 133326 132072 130812 129546 128273 126990 125695 124379
          123004 121482 120070 118700 117361 116047 114753 113479 112223 110988 109786 108564
          107337 106109 104881 103654 102426 101200 141797 140569 139338 138103 136865 135622
          134376 133126 131870 130609 129341 128065 126778 125477 124151 122788 121396 120014
          118660 117330 116021 114730 113456 112198 110957 109727 108500 107271 106042 104813
          103585 102358 101131 141601 140373 139142 137907 136669 135427 134180 132930 131674
          130412 129144 127868 126581 125280 123963 122626 121277 119931 118597 117279 115977
          114690 113417 112158 110910 109671 108437 107205 105974 104745 103516 102288 101061
          141409 140181 138950 137715 136477 135235 133989 132739 131483 130222 128955 127680
          126396 125102 123795 122478 121155 119833 118517 117211 115917 114635 113365 112105
          110854 109611 108373 107138 105906 104675 103446 102217 100991 141220 139992 138761
          137526 136289 135047 133802 132552 131298 130039 128774 127502 126222 124935 123640
          122338 121032 119727 118426 117131 115846 114569 113302 112043 110791 109546 108306
          107070 105836 104604 103374 102146 100919 141034 139806 138575 137341 136104 134863
          133619 132371 131118 129861 128599 127331 126057 124777 123491 122201 120909 119617
          118328 117043 115765 114494 113230 111973 110722 109476 108235 106998 105763 104531
          103301 102072 100845 140851 139623 138392 137159 135923 134683 133440 132194 130943
          129689 128430 127166 125897 124624 123347 122067 120785 119504 118224 116948 115677
          114411 113151 111896 110647 109402 108161 106924 105689 104457 103226 101998 100771
          140670 139443 138213 136980 135745 134507 133265 132021 130772 129521 128265 127006
          125742 124476 123206 121934 120661 119389 118117 116849 115584 114323 113067 111815
          110567 109324 108083 106846 105612 104380 103150 101921 100694 140492 139265 138036
          136804 135570 134333 133093 131851 130605 129356 128104 126849 125591 124330 123067
          121802 120537 119272 118008 116746 115487 114230 112978 111729 110484 109242 108003
          106767 105533 104301 103072 101843 100617 140317 139090 137861 136630 135397 134162
          132924 131684 130441 129195 127947 126696 125443 124187 122930 121672 120413 119154
          117896 116640 115386 114134 112885 111640 110397 109157 107919 106684 105452 104221
          102992 101764 100538 140142 138916 137688 136458 135227 133994 132758 131520 130280
          129037 127792 126545 125296 124046 122794 121541 120288 119035 117783 116532 115283
          114035 112790 111547 110307 109069 107833 106600 105368 104139 102911 101684 100458
          139969 138743 137516 136289 135059 133828 132594 131358 130121 128881 127640 126397
          125152 123906 122659 121411 120163 118916 117669 116422 115177 113934 112692 111452
          110214 108979 107745 106513 105283 104056 102829 101604 100378 139796 138570 137346
          136121 134893 133664 132432 131199 129964 128727 127489 126249 125009 123767 122525
          121282 120039 118796 117553 116311 115070 113831 112592 111355 110120 108886 107654
          106424 105196 103971 102747 101523 100299 139620 138397 137177 135955 134730 133502
          132272 131041 129808 128574 127339 126103 124866 123629 122391 121152 119914 118675
          117437 116199 114962 113726 112491 111257 110024 108792 107562 106334 105107 103883
          102663 101445 100223 139434 138220 137012 135793 134568 133342 132114 130884 129654
          128422 127191 125958 124725 123491 122257 121023 119789 118554 117320 116087 114853
          113621 112389 111157 109927 108697 107468 106241 105015 103792 102575 101371 100160
          139177 138065 136855 135634 134410 133183 131956 130728 129500 128272 127043 125813
          124584 123354 122124 120894 119664 118434 117204 115974 114744 113515 112286 111057
          109828 108601 107373 106146 104921 103697 102477 101272 100183
        </DataArray>
        <DataArray type="Float32" Name="density_w" NumberOfComponents="1" format="ascii">
          1000 1000 1000 1000 1000 1000 1000 1000 1000 1000 1000 1000
          1000 1000 1000 1000 1000 1000 1000 1000 1000 1000 1000 1000
          1000 1000 1000 1000 1000 1000 1000 1000 1000 1000 1000 1000
          1000 1000 1000 1000 1000 1000 1000 1000 1000 1000 1000 1000
          1000 1000 1000 1000 1000 1000 1000 1000 1000 1000 1000 1000
          1000 1000 1000 1000 1000 1000 1000 1000 1000 1000 1000 1000
          1000 1000 1000 1000 1000 1000 1000 1000 1000 1000 1000 1000
          1000 1000 1000 1000 1000 1000 1000 1000 1000 1000 1000 1000
          1000 1000 1000 1000 1000 1000 1000 1000 1000 1000 1000 1000
          1000 1000 1000 1000 1000 1000 1000 1000 1000 1000 1000 1000
          1000 1000 1000 1000 1000 1000 1000 1000 1000 1000 1000 1000
          1000 1000 1000 1000 1000 1000 1000 1000 1000 1000 1000 1000
          1000 1000 1000 1000 1000 1000 1000 1000 1000 1000 1000 1000
          1000 1000 1000 1000 1000 1000 1000 1000 1000 1000 1000 1000
          1000 1000 1000 1000 1000 1000 1000 1000 1000 1000 1000 1000
          1000 1000 1000 1000 1000 1000 1000 1000 1000 1000 1000 1000
          1000 1000 1000 1000 1000 1000 1000 1000 1000 1000 1000 1000
          1000 1000 1000 1000 1000 1000 1000 1000 1000 1000 1000 1000
          1000 1000 1000 1000 1000 1000 1000 1000 1000 1000 1000 1000
          1000 1000 1000 1000 1000 1000 1000 1000 1000 1000 1000 1000
          1000 1000 1000 1000 1000 1000 1000 1000 1000 1000 1000 1000
          1000 1000 1000 1000 1000 1000 1000 1000 1000 1000 1000 1000
          1000 1000 1000 1000 1000 1000 1000 1000 1000 1000 1000 1000
          1000 1000 1000 1000 1000 1000 1000 1000 1000 1000 1000 1000
          1000 1000 1000 1000 1000 1000 1000 1000 1000 1000 1000 1000
          1000 1000 1000 1000 1000 1000 1000 1000 1000 1000 1000 1000
          1000 1000 1000 1000 1000 1000 1000 1000 1000 1000 1000 1000
          1000 1000 1000 1000 1000 1000 1000 1000 1000 1000 1000 1000
          1000 1000 1000 1000 1000 1000 1000 1000 1000 1000 1000 1000
          1000 1000 1000 1000 1000 1000 1000 1000 1000 1000 1000 1000
          1000 1000 1000 1000 1000 1000 1000 1000 1000 1000 1000 1000
          1000 1000 1000 1000 1000 1000 1000 1000 1000 1000 1000 1000
          1000 1000 1000 1000 1000 1000 1000 1000 1000 1000 1000 1000
          1000 1000 1000 1000 1000 1000 1000 1000 1000 1000 1000 1000
          1000 1000 1000 1000 1000 1000 1000 1000 1000 1000 1000 1000
          1000 1000 1000 1000 1000 1000 1000 1000 1000 1000 1000 1000
          1000 1000 1000 1000 1000 1000 1000 1000 1000 1000 1000 1000
          1000 1000 1000 1000 1000 1000 1000 1000 1000 1000 1000 1000
          1000 1000 1000 1000 1000 1000 1000 1000 1000 1000 1000 1000
          1000 1000 1000 1000 1000 1000 1000 1000 1000 1000 1000 1000
          1000 1000 1000 1000 1000 1000 1000 1000 1000 1000 1000 1000
          1000 1000 1000 1000 1000 1000 1000 1000 1000 1000 1000 1000
          1000 1000 1000 1000 1000 1000 1000 1000 1000 1000 1000 1000
          1000 1000 1000 1000 1000 1000 1000 1000 1000 1000 1000 1000
          1000 1000 1000 1000 1000 1000 1000 1000 1000 1000 1000 1000
          1000 1000 1000 1000 1000 1000 1000 1000 1000 1000 1000 1000
          1000 1000 1000 1000 1000 1000 1000 1000 1000 1000 1000 1000
          1000 1000 1000 1000 1000 1000 1000 1000 1000 1000 1000 1000
          1000 1000 1000 1000 1000 1000 1000 1000 1000 1000 1000 1000
          1000 1000 1000 1000 1000 1000 1000 1000 1000 1000 1000 1000
          1000 1000 1000 1000 1000 1000 1000 1000 1000 1000 1000 1000
          1000 1000 1000 1000 1000 1000 1000 1000 1000 1000 1000 1000
          1000 1000 1000 1000 1000 1000 1000 1000 1000 1000 1000 1000
          1000 1000 1000 1000 1000 1000 1000 1000 1000 1000 1000 1000
          1000 1000 1000 1000 1000 1000 1000 1000 1000 1000 1000 1000
          1000 1000 1000 1000 1000 1000 1000 1000 1000 1000 1000 1000
          1000 1000 1000 1000 1000 1000 1000 1000 1000 1000 1000 1000
          1000 1000 1000 1000 1000 1000 1000 1000 1000 1000 1000 1000
          1000 1000 1000 1000 1000 1000 1000 1000 1000 1000 1000 1000