<?xml version="1.0"?>
<VTKFile type="UnstructuredGrid" version="0.1" byte_order="LittleEndian">
  <UnstructuredGrid>
    <Piece NumberOfCells="1536" NumberOfPoints="1617">
      <PointData Scalars="pressure_w">
        <DataArray type="Float32" Name="pressure_w" NumberOfComponents="1" format="ascii">
          153309 152350 151974 151040 150348 149586 148693 148047 147029 146468 145359 144867
          143687 143253 142013 141630 140338 140001 138662 138367 136985 136728 135308 135086
          133629 133441 131951 131793 130271 130142 128591 128487 126910 126829 125229 125168
          123547 123505 121865 121840 120183 120175 118501 118510 116820 116846 115139 115186
          113458 113530 111780 111881 110103 110242 108428 108615 106757 107005 105092 105421
          103437 103881 101816 102437 100581 101136 151557 150275 148892 147434 145927 144388
          142828 141254 139668 138075 136474 134868 133257 131639 130016 128387 126751 125110
          123464 121816 120166 118516 116869 115228 113595 111974 110369 108785 107229 105711
          104248 102865 101584 150882 149616 148274 146869 145416 143929 142417 140887 139344
          137789 136226 134656 133078 131491 129896 128292 126678 125056 123427 121793 120156
          118520 116888 115262 113648 112050 110476 108929 107417 105948 104534 103187 101920
          150291 149034 147718 146349 144938 143494 142024 140534 139029 137513 135986 134450
          132906 131352 129787 128207 126614 125009 123394 121772 120147 118521 116899 115284
          113684 112104 110554 109039 107563 106132 104751 103429 102170 149764 148513 147215
          145873 144494 143084 141650 140196 138727 137245 135754 134254 132745 131225 129691
          128137 126563 124972 123368 121755 120138 118519 116903 115294 113698 112128 110597
          109109 107665 106265 104911 103606 102353 149287 148040 146755 145433 144080 142699
          141295 139873 138436 136988 135530 134065 132593 131111 129615 128089 126530 124947
          123350 121743 120130 118515 116901 115291 113688 112112 110593 109135 107724 106353
          105021 103730 102482 148850 147607 146332 145026 143693 142336 140959 139565 138157
          136740 135314 133884 132449 131011 129567 128087 126512 124938 123341 121736 120125
          118511 116895 115279 113670 112015 110529 109119 107744 106401 105090 103812 102568
          148447 147207 145939 144647 143330 141993 140639 139269 137888 136499 135104 133706
          132308 130915 129533 128197 126635 124943 123310 121685 120058 118428 116791 115134
          113383 111740 110418 109070 107734 106418 105125 103858 102618 148071 146833 145573
          144291 142988 141668 140333 138985 137628 136264 134896 133527 132163 130809 129476
          128181 126661 124928 123245 121585 119931 118274 116603 114900 113129 111588 110306
          109005 107703 106412 105135 103878 102641 147719 146483 145228 143955 142664 141359
          140040 138711 137374 136032 134688 133345 132009 130684 129380 128106 126599 124864
          123161 121480 119806 118131 116444 114731 112983 111474 110214 108939 107662 106389
          105126 103877 102642 147387 146152 144902 143636 142355 141062 139758 138445 137126
          135803 134479 133158 131843 130540 129255 127992 126495 124764 123057 121367 119684
          118001 116309 114602 112875 111385 110135 108876 107615 106355 105103 103860 102627
          147071 145838 144591 143331 142059 140777 139485 138186 136882 135575 134268 132964
          131666 130379 129106 127850 126362 124641 122937 121246 119562 117878 116190 114493
          112786 111309 110065 108816 107565 106315 105070 103831 102601 146769 145537 144293
          143039 141774 140500 139219 137932 136640 135347 134054 132764 131479 130204 128939
          127689 126209 124500 122804 121118 119438 117761 116081 114397 112707 111242 110001
          108758 107513 106270 105030 103795 102565 146479 145248 144007 142757 141498 140232
          138959 137682 136401 135118 133837 132558 131284 130017 128759 127512 126041 124346
          122661 120984 119313 117645 115977 114307 112634 111179 109941 108701 107461 106222
          104985 103752 102523 146199 144968 143730 142483 141230 139969 138704 137435 136163
          134889 133617 132347 131081 129821 128568 127324 125862 124182 122510 120845 119185
          117529 115874 114220 112565 111119 109883 108645 107407 106171 104936 103705 102477
          145927 144697 143460 142217 140967 139713 138453 137190 135926 134660 133395 132132
          130872 129617 128368 127126 125673 124009 122352 120700 119054 117411 115772 114134
          112498 111062 109825 108588 107352 106117 104884 103654 102426 145662 144433 143198
          141957 140711 139460 138206 136949 135689 134430 133170 131913 130658 129408 128162
          126921 125477 123829 122187 120551 118919 117291 115667 114047 112431 111008 109765
          108528 107291 106057 104824 103594 102366 145404 144175 142941 141702 140459 139212
          137961 136708 135454 134199 132945 131691 130441 129193 127950 126711 125275 123644
          122018 120396 118780 117167 115559 113955 112357 110944 109697 108458 107222 105987
          104754 103523 102295 145150 143922 142689 141452 140211 138966 137719 136470 135219
          133968 132717 131467 130220 128975 127733 126495 125069 123454 121843 120237 118636
          117039 115446 113858 112275 110868 109621 108383 107146 105911 104679 103448 102220
          144901 143673 142441 141205 139966 138724 137479 136233 134985 133737 132489 131242
          129996 128753 127513 126276 124858 123259 121664 120074 118488 116906 115329 113756
          112187 110787 109541 108303 107067 105833 104600 103370 102143 144657 143428 142197
          140962 139724 138484 137241 135997 134751 133505 132259 131014 129770 128529 127289
          126053 124643 123060 121481 119906 118336 116769 115207 113649 112095 110702 109457
          108220 106985 105751 104520 103290 102062 144415 143187 141956 140722 139485 138246
          137005 135762 134518 133273 132028 130785 129542 128301 127063 125827 124425 122857
          121294 119734 118179 116628 115082 113539 112000 110614 109370 108135 106900 105668
          104436 103207 101980 144177 142949 141719 140485 139249 138010 136770 135528 134285
          133041 131797 130554 129312 128072 126834 125598 124204 122651 121102 119557 118018
          116483 114953 113425 111900 110522 109281 108047 106814 105582 104351 103122 101895
          143942 142714 141484 140251 139015 137777 136537 135295 134053 132809 131566 130323
          129081 127840 126602 125367 123979 122440 120905 119376 117852 116334 114820 113309
          111799 110426 109190 107958 106726 105495 104265 103036 101808 143710 142482 141252
          140019 138783 137545 136305 135064 133821 132577 131333 130090 128847 127607 126368
          125133 123751 122224 120702 119188 117681 116180 114685 113192 111700 110332 109103
          107874 106643 105413 104184 102955 101728 143480 142253 141022 139789 138554 137316
          136076 134834 133590 132346 131101 129856 128612 127370 126131 124895 123518 122002
          120493 118993 117503 116021 114546 113075 111604 110250 109025 107796 106567 105339
          104110 102883 101657 143254 142026 140796 139562 138327 137088 135848 134605 133360
          132115 130868 129621 128376 127132 125891 124654 123280 121772 120274 118789 117316
          115855 114403 112957 111514 110178 108951 107723 106495 105267 104039 102812 101586
          143030 141802 140572 139338 138102 136863 135622 134378 133132 131884 130636 129386
          128137 126890 125646 124407 123034 121531 120042 118572 117118 115680 114253 112836
          111425 110106 108878 107650 106422 105195 103968 102741 101514 142809 141581 140351
          139117 137880 136641 135398 134153 132906 131656 130404 129150 127897 126644 125396
          124154 122778 121273 119792 118337 116905 115492 114095 112710 111333 110033 108805
          107577 106350 105123 103896 102669 101442 142591 141363 140132 138898 137661 136421
          135178 133931 132681 131429 130173 128915 127655 126396 125140 123892 122504 120990
          119516 118079 116672 115288 113924 112575 111238 109958 108731 107504 106277 105050
          103823 102597 101370 142376 141148 139917 138683 137445 136204 134960 133712 132460
          131205 129945 128681 127414 126144 124875 123615 122198 120662 119202 117792 116416
          115066 113736 112427 111137 109884 108658 107431 106205 104978 103751 102524 101298
          142165 140937 139706 138471 137233 135991 134746 133496 132243 130985 129721 128452
          127176 125892 124600 123322 121786 120256 118842 117474 116136 114823 113530 112258
          111016 109811 108584 107359 106132 104905 103678 102452 101225 141956 140729 139497
          138262 137024 135782 134536 133285 132030 130770 129503 128229 126946 125649 124331
          122953 121425 120010 118636 117296 115982 114688 113415 112160 110929 109732 108512
          107287 106060 104833 103605 102379 101152 141752 140524 139292 138057 136819 135576
          134330 133079 131823 130561 129293 128016 126728 125425 124098 122732 121337 119952
          118596 117264 115955 114664 113391 112135 110896 109669 108443 107216 105988 104760
          103532 102305 101079 141550 140322 139091 137856 136617 135375 134128 132877 131621
          130359 129090 127813 126525 125223 123904 122565 121215 119866 118530 117211 115909
          114622 113350 112092 110846 109609 108377 107146 105916 104687 103459 102231 101004
          141352 140124 138893 137658 136420 135178 133931 132681 131425 130164 128896 127620
          126335 125039 123732 122413 121089 119765 118448 117141 115847 114565 113296 112037
          110787 109545 108309 107075 105843 104613 103384 102156 100929 141157 139930 138698
          137464 136226 134984 133739 132489 131235 129975 128709 127436 126156 124868 123572
          122269 120962 119656 118354 117059 115773 114497 113230 111972 110721 109477 108238
          107002 105769 104538 103308 102080 100853 140966 139738 138507 137273 136036 134795
          133551 132302 131049 129792 128529 127260 125986 124705 123419 122128 120835 119542
          118252 116968 115690 114419 113155 111898 110648 109404 108163 106927 105693 104461
          103231 102003 100776 140777 139550 138319 137086 135849 134610 133366 132120 130869
          129614 128355 127090 125821 124548 123270 121989 120707 119426 118146 116870 115599
          114333 113073 111819 110570 109326 108086 106849 105615 104383 103153 101925 100698
          140592 139364 138134 136901 135666 134427 133186 131941 130693 129441 128185 126925
          125662 124395 123125 121853 120579 119307 118035 116767 115502 114242 112986 111734
          110487 109244 108005 106768 105534 104303 103073 101845 100618 140408 139181 137952
          136720 135485 134248 133009 131766 130520 129271 128019 126764 125506 124245 122981
          121717 120451 119186 117922 116660 115401 114146 112893 111645 110400 109159 107920
          106685 105452 104221 102991 101763 100536 140227 139000 137771 136541 135308 134072
          132834 131594 130351 129105 127857 126606 125353 124097 122840 121582 120323 119064
          117807 116551 115297 114046 112797 111552 110310 109070 107833 106599 105367 104137
          102908 101681 100454 140048 138821 137593 136363 135132 133898 132663 131425 130184
          128942 127697 126450 125201 123951 122699 121447 120194 118942 117690 116439 115190
          113943 112698 111456 110216 108979 107744 106511 105280 104052 102824 101598 100371
          139870 138643 137416 136188 134959 133727 132493 131258 130020 128780 127539 126296
          125052 123806 122560 121313 120065 118818 117571 116326 115081 113838 112597 111358
          110121 108885 107652 106421 105192 103965 102739 101514 100288 139691 138466 137241
          136015 134787 133557 132326 131092 129857 128621 127383 126144 124904 123663 122421
          121179 119936 118694 117452 116211 114971 113731 112494 111257 110023 108790 107558
          106329 105102 103877 102654 101431 100207 139511 138288 137067 135844 134618 133390
          132160 130929 129696 128463 127228 125993 124757 123520 122282 121045 119807 118569
          117332 116095 114859 113623 112389 111156 109923 108692 107463 106235 105009 103786
          102567 101351 100130 139322 138107 136896 135676 134451 133224 131996 130766 129536
          128306 127074 125842 124610 123377 122144 120911 119678 118445 117211 115979 114746
          113514 112283 111053 109823 108593 107365 106138 104913 103691 102475 101276 100069
          139066 137947 136734 135511 134285 133059 131832 130605 129377 128149 126921 125692
          124464 123235 122006 120777 119548 118320 117091 115862 114633 113405 112177 110949
          109721 108494 107267 106040 104815 103591 102370 101166 100119
        </DataArray>
        <DataArray type="Float32" Name="pressure_n" NumberOfComponents="1" format="ascii">
          153309 152350 151974 151040 150348 149586 148693 148047 147029 146468 145359 144867
          143687 143253 142013 141630 140338 140001 138662 138367 136985 136728 135308 135086
          133629 133441 131951 131793 130271 130142 128591 128487 126910 126829 125229 125168
          123547 123505 121865 121840 120183 120175 118501 118510 116820 116846 115139 115186
          113458 113530 111780 111881 110103 110242 108428 108615 106757 107005 105092 105421
          103437 103881 101816 102437 100581 101136 151557 150275 148892 147434 145927 144388
          142828 141254 139668 138075 136474 134868 133257 131639 130016 128387 126751 125110
          123464 121816 120166 118516 116869 115228 113595 111974 110369 108785 107229 105711
          104248 102865 101584 150882 149616 148274 146869 145416 143929 142417 140887 139344
          137789 136226 134656 133078 131491 129896 128292 126678 125056 123427 121793 120156
          118520 116888 115262 113648 112050 110476 108929 107417 105948 104534 103187 101920
          150291 149034 147718 146349 144938 143494 142024 140534 139029 137513 135986 134450
          132906 131352 129787 128207 126614 125009 123394 121772 120147 118521 116899 115284
          113684 112104 110554 109039 107563 106132 104751 103429 102170 149764 148513 147215
          145873 144494 143084 141650 140196 138727 137245 135754 134254 132745 131225 129691
          128137 126563 124972 123368 121755 120138 118519 116903 115294 113698 112128 110597
          109109 107665 106265 104911 103606 102353 149287 148040 146755 145433 144080 142699
          141295 139873 138436 136988 135530 134065 132593 131111 129615 128089 126530 124947
          123350 121743 120130 118515 116901 115291 113688 112112 110593 109135 107724 106353
          105021 103730 102482 148850 147607 146332 145026 143693 142336 140959 139565 138157
          136740 135314 133884 132449 131011 129567 128087 126512 124938 123341 121736 120125
          118511 116895 115279 113670 112015 110529 109119 107744 106401 105090 103812 102568
          148447 147207 145939 144647 143330 141993 140639 139269 137888 136499 135104 133706
          132308 130915 129533 128197 126635 124943 123310 121685 120058 118428 116791 115134
          113383 111740 110418 109070 107734 106418 105125 103858 102618 148071 146833 145573
          144291 142988 141668 140333 138985 137628 136264 134896 133527 132163 130809 129476
          128181 126661 124928 123245 121585 119931 118274 116603 114900 113129 111588 110306
          109005 107703 106412 105135 103878 102641 147719 146483 145228 143955 142664 141359
          140040 138711 137374 136032 134688 133345 132009 130684 129380 128106 126599 124864
          123161 121480 119806 118131 116444 114731 112983 111474 110214 108939 107662 106389
          105126 103877 102642 147387 146152 144902 143636 142355 141062 139758 138445 137126
          135803 134479 133158 131843 130540 129255 127992 126495 124764 123057 121367 119684
          118001 116309 114602 112875 111385 110135 108876 107615 106355 105103 103860 102627
          147071 145838 144591 143331 142059 140777 139485 138186 136882 135575 134268 132964
          131666 130379 129106 127850 126362 124641 122937 121246 119562 117878 116190 114493
          112786 111309 110065 108816 107565 106315 105070 103831 102601 146769 145537 144293
          143039 141774 140500 139219 137932 136640 135347 134054 132764 131479 130204 128939
          127689 126209 124500 122804 121118 119438 117761 116081 114397 112707 111242 110001
          108758 107513 106270 105030 103795 102565 146479 145248 144007 142757 141498 140232
          138959 137682 136401 135118 133837 132558 131284 130017 128759 127512 126041 124346
          122661 120984 119313 117645 115977 114307 112634 111179 109941 108701 107461 106222
          104987 103755 102526 146199 144968 143730 142483 141230 139969 138704 137435 136163
          134889 133617 132347 131081 129821 128568 127324 125862 124182 122510 120845 119185
          117529 115874 114220 112565 111130 109899 108681 107463 106242 105017 103789 102552
          145927 144697 143460 142217 140967 139713 138453 137190 135926 134660 133395 132132
          130872 129617 128368 127126 125673 124009 122352 120700 119054 117411 115772 114134
          112548 111180 109941 108715 107486 106256 105027 103799 102573 145662 144433 143198
          141957 140711 139460 138206 136949 135689 134430 133170 131913 130658 129408 128162
          126921 125477 123829 122187 120551 118919 117291 115667 114047 112840 111166 109909
          108675 107443 106211 104981 103752 102526 145404 144175 142941 141702 140459 139212
          137961 136708 135454 134199 132945 131691 130441 129193 127950 126711 125275 123644
          122018 120396 118780 117167 115559 113956 112857 111118 109847 108612 107378 106145
          104913 103683 102456 145150 143922 142689 141452 140211 138966 137719 136470 135219
          133968 132717 131467 130220 128975 127733 126495 125069 123454 121843 120237 118636
          117039 115446 113859 112807 111051 109775 108538 107304 106071 104839 103609 102381
          144901 143673 142441 141205 139966 138724 137479 136233 134985 133737 132489 131242
          129996 128753 127513 126276 124858 123259 121664 120074 118488 116906 115329 113757
          112738 110975 109695 108459 107225 105992 104761 103531 102304 144657 143428 142197
          140962 139724 138484 137241 135997 134751 133505 132259 131014 129770 128529 127289
          126053 124643 123060 121481 119906 118336 116769 115207 113650 112659 110893 109612
          108377 107143 105911 104680 103451 102223 144415 143187 141956 140722 139485 138246
          137005 135762 134518 133273 132028 130785 129542 128301 127063 125827 124425 122857
          121294 119734 118179 116628 115082 113540 112572 110806 109525 108291 107059 105827
          104597 103368 102141 144177 142949 141719 140485 139249 138010 136770 135528 134285
          133041 131797 130554 129312 128072 126834 125598 124204 122651 121102 119557 118018
          116483 114953 113427 112476 110712 109435 108202 106971 105741 104511 103282 102055
          143942 142714 141484 140251 139015 137777 136537 135295 134053 132809 131566 130323
          129081 127840 126602 125367 123979 122440 120905 119376 117852 116334 114820 113310
          112355 110608 109337 108107 106877 105646 104416 103186 101957 143710 142482 141252
          140019 138783 137545 136305 135064 133821 132577 131333 130090 128847 127607 126368
          125133 123751 122224 120702 119188 117681 116180 114685 113193 112140 110495 109230
          108003 106775 105545 104313 103080 101841 143480 142253 141022 139789 138554 137316
          136076 134834 133590 132346 131101 129856 128612 127370 126131 124895 123518 122002
          120493 118993 117503 116021 114546 113075 111774 110386 109105 107888 106665 105438
          104207 102969 101709 143254 142026 140796 139562 138327 137088 135848 134605 133360
          132115 130868 129621 128376 127132 125891 124654 123280 121772 120274 118789 117316
          115855 114403 112957 111525 110267 108957 107734 106510 105285 104057 102824 101589
          143030 141802 140572 139338 138102 136863 135622 134378 133132 131884 130636 129386
          128137 126890 125646 124407 123034 121531 120042 118572 117118 115680 114253 112836
          111425 110112 108878 107650 106422 105195 103968 102741 101514 142809 141581 140351
          139117 137880 136641 135398 134153 132906 131656 130404 129150 127897 126644 125396
          124154 122778 121273 119792 118337 116905 115492 114095 112710 111333 110033 108805
          107577 106350 105123 103896 102669 101442 142591 141363 140132 138898 137661 136421
          135178 133931 132681 131429 130173 128915 127655 126396 125140 123892 122504 120990
          119516 118079 116672 115288 113924 112575 111238 109958 108731 107504 106277 105050
          103823 102597 101370 142376 141148 139917 138683 137445 136204 134960 133712 132460
          131205 129945 128681 127414 126144 124875 123615 122198 120662 119202 117792 116416
          115066 113736 112427 111137 109884 108658 107431 106205 104978 103751 102524 101298
          142165 140937 139706 138471 137233 135991 134746 133496 132243 130985 129721 128452
          127176 125892 124600 123322 121786 120256 118842 117474 116136 114823 113530 112258
          111016 109811 108584 107359 106132 104905 103678 102452 101225 141956 140729 139497
          138262 137024 135782 134536 133285 132030 130770 129503 128229 126946 125649 124331
          122953 121425 120010 118636 117296 115982 114688 113415 112160 110929 109732 108512
          107287 106060 104833 103605 102379 101152 141752 140524 139292 138057 136819 135576
          134330 133079 131823 130561 129293 128016 126728 125425 124098 122732 121337 119952
          118596 117264 115955 114664 113391 112135 110896 109669 108443 107216 105988 104760
          103532 102305 101079 141550 140322 139091 137856 136617 135375 134128 132877 131621
          130359 129090 127813 126525 125223 123904 122565 121215 119866 118530 117211 115909
          114622 113350 112092 110846 109609 108377 107146 105916 104687 103459 102231 101004
          141352 140124 138893 137658 136420 135178 133931 132681 131425 130164 128896 127620
          126335 125039 123732 122413 121089 119765 118448 117141 115847 114565 113296 112037
          110787 109545 108309 107075 105843 104613 103384 102156 100929 141157 139930 138698
          137464 136226 134984 133739 132489 131235 129975 128709 127436 126156 124868 123572
          122269 120962 119656 118354 117059 115773 114497 113230 111972 110721 109477 108238
          107002 105769 104538 103308 102080 100853 140966 139738 138507 137273 136036 134795
          133551 132302 131049 129792 128529 127260 125986 124705 123419 122128 120835 119542
          118252 116968 115690 114419 113155 111898 110648 109404 108163 106927 105693 104461
          103231 102003 100776 140777 139550 138319 137086 135849 134610 133366 132120 130869
          129614 128355 127090 125821 124548 123270 121989 120707 119426 118146 116870 115599
          114333 113073 111819 110570 109326 108086 106849 105615 104383 103153 101925 100698
          140592 139364 138134 136901 135666 134427 133186 131941 130693 129441 128185 126925
          125662 124395 123125 121853 120579 119307 118035 116767 115502 114242 112986 111734
          110487 109244 108005 106768 105534 104303 103073 101845 100618 140408 139181 137952
          136720 135485 134248 133009 131766 130520 129271 128019 126764 125506 124245 122981
          121717 120451 119186 117922 116660 115401 114146 112893 111645 110400 109159 107920
          106685 105452 104221 102991 101763 100536 140227 139000 137771 136541 135308 134072
          132834 131594 130351 129105 127857 126606 125353 124097 122840 121582 120323 119064
          117807 116551 115297 114046 112797 111552 110310 109070 107833 106599 105367 104137
          102908 101681 100454 140048 138821 137593 136363 135132 133898 132663 131425 130184
          128942 127697 126450 125201 123951 122699 121447 120194 118942 117690 116439 115190
          113943 112698 111456 110216 108979 107744 106511 105280 104052 102824 101598 100371
          139870 138643 137416 136188 134959 133727 132493 131258 130020 128780 127539 126296
          125052 123806 122560 121313 120065 118818 117571 116326 115081 113838 112597 111358
          110121 108885 107652 106421 105192 103965 102739 101514 100288 139691 138466 137241
          136015 134787 133557 132326 131092 129857 128621 127383 126144 124904 123663 122421
          121179 119936 118694 117452 116211 114971 113731 112494 111257 110023 108790 107558
          106329 105102 103877 102654 101431 100207 139511 138288 137067 135844 134618 133390
          132160 130929 129696 128463 127228 125993 124757 123520 122282 121045 119807 118569
          117332 116095 114859 113623 112389 111156 109923 108692 107463 106235 105009 103786
          102567 101351 100130 139322 138107 136896 135676 134451 133224 131996 130766 129536
          128306 127074 125842 124610 123377 122144 120911 119678 118445 117211 115979 114746
          113514 112283 111053 109823 108593 107365 106138 104913 103691 102475 101276 100069
          139066 137947 136734 135511 134285 133059 131832 130605 129377 128149 126921 125692
          124464 123235 122006 120777 119548 118320 117091 115862 114633 113405 112177 110949
          109721 108494 107267 106040 104815 103591 102370 101166 100119
        </DataArray>
        <DataArray type="Float32" Name="density_w" NumberOfComponents="1" format="ascii">
          1000 1000 1000 1000 1000 1000 1000 1000 1000 1000 1000 1000
          1000 1000 1000 1000 1000 1000 1000 1000 1000 1000 1000 1000
          1000 1000 1000 1000 1000 1000 1000 1000 1000 1000 1000 1000
          1000 1000 1000 1000 1000 1000 1000 1000 1000 1000 1000 1000
          1000 1000 1000 1000 1000 1000 1000 1000 1000 1000 1000 1000
          1000 1000 1000 1000 1000 1000 1000 1000 1000 1000 1000 1000
          1000 1000 1000 1000 1000 1000 1000 1000 1000 1000 1000 1000
          1000 1000 1000 1000 1000 1000 1000 1000 1000 1000 1000 1000
          1000 1000 1000 1000 1000 1000 1000 1000 1000 1000 1000 1000
          1000 1000 1000 1000 1000 1000 1000 1000 1000 1000 1000 1000
          1000 1000 1000 1000 1000 1000 1000 1000 1000 1000 1000 1000
          1000 1000 1000 1000 1000 1000 1000 1000 1000 1000 1000 1000
          1000 1000 1000 1000 1000 1000 1000 1000 1000 1000 1000 1000
          1000 1000 1000 1000 1000 1000 1000 1000 1000 1000 1000 1000
          1000 1000 1000 1000 1000 1000 1000 1000 1000 1000 1000 1000
          1000 1000 1000 1000 1000 1000 1000 1000 1000 1000 1000 1000
          1000 1000 1000 1000 1000 1000 1000 1000 1000 1000 1000 1000
          1000 1000 1000 1000 1000 1000 1000 1000 1000 1000 1000 1000
          1000 1000 1000 1000 1000 1000 1000 1000 1000 1000 1000 1000
          1000 1000 1000 1000 1000 1000 1000 1000 1000 1000 1000 1000
          1000 1000 1000 1000 1000 1000 1000 1000 1000 1000 1000 1000
          1000 1000 1000 1000 1000 1000 1000 1000 1000 1000 1000 1000
          1000 1000 1000 1000 1000 1000 1000 1000 1000 1000 1000 1000
          1000 1000 1000 1000 1000 1000 1000 1000 1000 1000 1000 1000
          1000 1000 1000 1000 1000 1000 1000 1000 1000 1000 1000 1000
          1000 1000 1000 1000 1000 1000 1000 1000 1000 1000 1000 1000
          1000 1000 1000 1000 1000 1000 1000 1000 1000 1000 1000 1000
          1000 1000 1000 1000 1000 1000 1000 1000 1000 1000 1000 1000
          1000 1000 1000 1000 1000 1000 1000 1000 1000 1000 1000 1000
          1000 1000 1000 1000 1000 1000 1000 1000 1000 1000 1000 1000
          1000 1000 1000 1000 1000 1000 1000 1000 1000 1000 1000 1000
          1000 1000 1000 1000 1000 1000 1000 1000 1000 1000 1000 1000
          1000 1000 1000 1000 1000 1000 1000 1000 1000 1000 1000 1000
          1000 1000 1000 1000 1000 1000 1000 1000 1000 1000 1000 1000
          1000 1000 1000 1000 1000 1000 1000 1000 1000 1000 1000 1000
          1000 1000 1000 1000 1000 1000 1000 1000 1000 1000 1000 1000
          1000 1000 1000 1000 1000 1000 1000 1000 1000 1000 1000 1000
          1000 1000 1000 1000 1000 1000 1000 1000 1000 1000 1000 1000
          1000 1000 1000 1000 1000 1000 1000 1000 1000 1000 1000 1000
          1000 1000 1000 1000 1000 1000 1000 1000 1000 1000 1000 1000
          1000 1000 1000 1000 1000 1000 1000 1000 1000 1000 1000 1000
          1000 1000 1000 1000 1000 1000 1000 1000 1000 1000 1000 1000
          1000 1000 1000 1000 1000 1000 1000 1000 1000 1000 1000 1000
          1000 1000 1000 1000 1000 1000 1000 1000 1000 1000 1000 1000
          1000 1000 1000 1000 1000 1000 1000 1000 1000 1000 1000 1000
          1000 1000 1000 1000 1000 1000 1000 1000 1000 1000 1000 1000
          1000 1000 1000 1000 1000 1000 1000 1000 1000 1000 1000 1000
          1000 1000 1000 1000 1000 1000 1000 1000 1000 1000 1000 1000
          1000 1000 1000 1000 1000 1000 1000 1000 1000 1000 1000 1000
          1000 1000 1000 1000 1000 1000 1000 1000 1000 1000 1000 1000
          1000 1000 1000 1000 1000 1000 1000 1000 1000 1000 1000 1000
          1000 1000 1000 1000 1000 1000 1000 1000 1000 1000 1000 1000
          1000 1000 1000 1000 1000 1000 1000 1000 1000 1000 1000 1000
          1000 1000 1000 1000 1000 1000 1000 1000 1000 1000 1000 1000
          1000 1000 1000 1000 1000 1000 1000 1000 1000 1000 1000 1000
          1000 1000 1000 1000 1000 1000 1000 1000 1000 1000 1000 1000
          1000 1000 1000 1000 1000 1000 1000 1000 1000 1000 1000 1000
          1000 1000 1000 1000 1000 1000 1000 1000 1000 1000 1000 1000
          1000 1000 1000 1000 1000 1000 1000 1000 1000 1000 1000 1000