<?xml version="1.0"?>
<VTKFile type="UnstructuredGrid" version="0.1" byte_order="LittleEndian">
  <UnstructuredGrid>
    <Piece NumberOfCells="384" NumberOfPoints="425">
      <PointData Scalars="pressure_l">
        <DataArray type="Float32" Name="pressure_l" NumberOfComponents="1" format="ascii">
          100011 100048 100005 100028 100066 100043 100076 100050 100005 100003 100002 100000
          100002 100000 100002 100000 100025 100023 100893 100858 100940 100907 101040 101007
          101194 101159 101405 101369 101678 101638 102015 101973 102423 102376 102903 102851
          103461 103401 104102 104032 104839 104749 105700 105575 106725 106573 108785 108654
          188380 184672 100003 100017 100027 100031 100002 100000 100000 100000 100021 100817
          100865 100963 101111 101315 101577 101901 102292 102752 103283 103885 104555 105286
          106086 107719 184349 100002 100010 100016 100019 100001 100000 100000 100000 100019
          100769 100815 100909 101051 101245 101495 101804 102176 102612 103114 103679 104298
          104932 105445 105885 183511 100001 100004 100008 100009 100001 100000 100000 100000
          100017 100715 100759 100846 100980 101162 101395 101684 102031 102437 102903 103429
          104010 104629 105187 103996 168733 99998.7 99999.5 100001 100002 100000 100000 100000
          100000 100016 100656 100696 100777 100900 101068 101282 101547 101863 102234 102658
          103139 103680 104313 105209 108501 100302 99993.5 99993.8 99994.3 99994.7 100000 100000
          100000 100000 100014 100593 100630 100703 100815 100966 101159 101397 101680 102010
          102386 102810 103287 103838 104527 104611 104259 99987.1 99987.2 99987.4 99987.7 99999.7
          100000 100000 100000 100012 100529 100562 100627 100726 100860 101031 101240 101488
          101774 102098 102456 102844 103248 103584 103732 103745 99979.7 99979.7 99979.9 99980
          99999.5 100000 100000 100000 100010 100464 100493 100550 100637 100754 100903 101083
          101295 101538 101808 102100 102401 102687 102914 103048 103089 99971.1 99971.2 99971.3
          99971.5 99999.2 100000 100000 100000 100009 100399 100425 100474 100550 100650 100777
          100931 101109 101311 101532 101763 101994 102205 102372 102477 102513 99961.3 99961.4
          99961.5 99961.7 99998.9 100000 100000 100000 100007 100337 100359 100402 100466 100552
          100659 100788 100936 101101 101279 101462 101639 101798 101923 102003 102030 99950.1
          99950.2 99950.3 99950.6 99998.4 100000 100000 100000 100005 100277 100296 100333 100388
          100461 100552 100659 100781 100915 101057 101201 101338 101460 101555 101615 101636
          99937.2 99937.3 99937.6 99937.9 99997.9 100000 100000 100000 100004 100221 100238 100270
          100318 100380 100456 100545 100646 100756 100870 100984 101092 101186 101259 101305
          101321 99922.4 99922.7 99923.3 99923.6 99997.3 99999.9 100000 100000 100002 100167 100183
          100213 100255 100309 100374 100450 100534 100625 100719 100811 100897 100972 101029
          101066 101078 99905.1 99906 99908.2 99907.6 99995.1 99998.1 99998.6 99999 100000 100114
          100131 100162 100201 100250 100307 100373 100446 100524 100603 100680 100752 100814
          100861 100891 100901 99884.5 99885.9 99890.8 99904.4 99916.6 99938.5 99961 99986.9 100020
          100051 100086 100119 100157 100203 100256 100316 100382 100452 100523 100592 100655
          100709 100751 100777 100786 99859.3 99861.1 99867.2 99877.8 99892.4 99911.2 99933.5 99959.2
          99988.3 100019 100051 100086 100124 100169 100220 100279 100342 100409 100478 100544
          100604 100656 100696 100720 100729
        </DataArray>
        <DataArray type="Float32" Name="pressure_g" NumberOfComponents="1" format="ascii">
          100011 100048 100005 100028 100066 100043 100076 100050 100005 100003 100002 100000
          100002 100000 100002 100000 100025 100023 100893 100858 100940 100907 101040 101007
          101194 101159 101405 101369 101678 101638 102015 101973 102423 102376 102903 102851
          103461 103401 104102 104032 104839 104749 105700 105575 106725 106573 108785 108654
          188380 184672 100003 100017 100027 100031 100002 100000 100000 100000 100021 100817
          100865 100963 101111 101315 101577 101901 102292 102752 103283 103885 104555 105286
          106086 107719 184349 100002 100010 100016 100019 100001 100000 100000 100000 100019
          100769 100815 100909 101051 101245 101495 101804 102176 102612 103114 103679 104298
          104932 105445 105885 183511 100001 100004 100008 100009 100001 100000 100000 100000
          100017 100715 100759 100846 100980 101162 101395 101684 102031 102437 102903 103429
          104010 104629 105187 103996 168733 99998.7 99999.5 100001 100002 100000 100000 100000
          100000 100016 100656 100696 100777 100900 101068 101282 101547 101863 102234 102658
          103139 103680 104313 105209 108501 100302 99993.5 99993.8 99994.3 99994.7 100000 100000
          100000 100000 100014 100593 100630 100703 100815 100966 101159 101397 101680 102010
          102386 102810 103287 103838 104527 104611 104259 99987.1 99987.2 99987.4 99987.7 99999.7
          100000 100000 100000 100012 100529 100562 100627 100726 100860 101031 101240 101488
          101774 102098 102456 102844 103248 103584 103732 103745 99979.7 99979.7 99979.9 99980
          99999.5 100000 100000 100000 100010 100464 100493 100550 100637 100754 100903 101083
          101295 101538 101808 102100 102401 102687 102914 103048 103089 99971.1 99971.2 99971.3
          99971.5 99999.2 100000 100000 100000 100009 100399 100425 100474 100550 100650 100777
          100931 101109 101311 101532 101763 101994 102205 102372 102477 102513 99961.3 99961.4
          99961.5 99961.7 99998.9 100000 100000 100000 100007 100337 100359 100402 100466 100552
          100659 100788 100936 101101 101279 101462 101639 101798 101923 102003 102030 99950.1
          99950.2 99950.3 99950.6 99998.4 100000 100000 100000 100005 100277 100296 100333 100388
          100461 100552 100659 100781 100915 101057 101201 101338 101460 101555 101615 101636
          99937.2 99937.3 99937.6 99937.9 99997.9 100000 100000 100000 100004 100221 100238 100270
          100318 100380 100456 100545 100646 100756 100870 100984 101092 101186 101259 101305
          101321 99922.4 99922.7 99923.3 99923.6 99997.3 99999.9 100000 100000 100002 100167 100183
          100213 100255 100309 100374 100450 100534 100625 100719 100811 100897 100972 101029
          101066 101078 99905.1 99906 99908.2 99907.6 99995.1 99998.1 99998.6 99999 100000 100114
          100131 100162 100201 100250 100307 100373 100446 100524 100603 100680 100752 100814
          100861 100891 100901 99884.5 99885.9 99890.8 99904.4 99916.6 99938.5 99961 99986.9 100020
          100051 100086 100119 100157 100203 100256 100316 100382 100452 100523 100592 100655
          100709 100751 100777 100786 99859.3 99861.1 99867.2 99877.8 99892.4 99911.2 99933.5 99959.2
          99988.3 100019 100051 100086 100124 100169 100220 100279 100342 100409 100478 100544
          100604 100656 100696 100720 100729
        </DataArray>
        <DataArray type="Float32" Name="density_l" NumberOfComponents="1" format="ascii">
          997.068 997.068 997.068 997.068 997.068 997.068 997.068 997.068 997.068 997.068 997.068 997.068
          997.068 997.068 997.068 997.068 997.068 997.068 997.068 997.068 997.068 997.068 997.068 997.068
          997.068 997.068 997.068 997.068 997.069 997.069 997.069 997.069 997.069 997.069 997.069 997.069
          997.069 997.069 997.069 997.069 997.068 997.068 997.063 997.063 997.057 997.057 997.058 997.058
          997.099 997.097 997.068 997.068 997.068 997.068 997.068 997.068 997.068 997.068 997.068 997.068
          997.068 997.068 997.068 997.068 997.068 997.069 997.069 997.069 997.069 997.069 997.068 997.063
          997.057 997.058 997.097 997.068 997.068 997.068 997.068 997.068 997.068 997.068 997.068 997.068
          997.068 997.068 997.068 997.068 997.068 997.068 997.069 997.069 997.069 997.069 997.069 997.069
          997.064 997.057 997.057 997.097 997.068 997.068 997.068 997.068 997.068 997.068 997.068 997.068
          997.068 997.068 997.068 997.068 997.068 997.068 997.068 997.069 997.069 997.069 997.069 997.069
          997.069 997.064 997.057 997.056 997.089 997.068 997.068 997.068 997.068 997.068 997.068 997.068
          997.068 997.068 997.068 997.068 997.068 997.068 997.068 997.068 997.068 997.069 997.069 997.069
          997.069 997.069 997.068 997.061 997.058 997.054 997.068 997.068 997.068 997.068 997.068 997.068
          997.068 997.068 997.068 997.068 997.068 997.068 997.068 997.068 997.068 997.068 997.069 997.069
          997.069 997.069 997.069 997.069 997.067 997.061 997.066 997.068 997.068 997.068 997.068 997.068
          997.068 997.068 997.068 997.068 997.068 997.068 997.068 997.068 997.068 997.068 997.068 997.068
          997.069 997.069 997.069 997.069 997.069 997.069 997.068 997.069 997.068 997.068 997.068 997.068
          997.068 997.068 997.068 997.068 997.068 997.068 997.068 997.068 997.068 997.068 997.068 997.068
          997.068 997.068 997.069 997.069 997.069 997.069 997.069 997.069 997.069 997.068 997.068 997.068
          997.068 997.068 997.068 997.068 997.068 997.068 997.068 997.068 997.068 997.068 997.068 997.068
          997.068 997.068 997.068 997.068 997.069 997.069 997.069 997.069 997.069 997.069 997.068 997.068
          997.068 997.068 997.068 997.068 997.068 997.068 997.068 997.068 997.068 997.068 997.068 997.068
          997.068 997.068 997.068 997.068 997.068 997.068 997.069 997.069 997.069 997.069 997.069 997.068
          997.068 997.068 997.068 997.068 997.068 997.068 997.068 997.068 997.068 997.068 997.068 997.068
          997.068 997.068 997.068 997.068 997.068 997.068 997.068 997.068 997.068 997.068 997.069 997.069
          997.068 997.068 997.068 997.068 997.068 997.068 997.068 997.068 997.068 997.068 997.068 997.068
          997.068 997.068 997.068 997.068 997.068 997.068 997.068 997.068 997.068 997.068 997.068 997.068
          997.068 997.068 997.068 997.068 997.068 997.068 997.068 997.068 997.068 997.068 997.068 997.068
          997.068 997.068 997.068 997.068 997.068 997.068 997.068 997.068 997.068 997.068 997.068 997.068
          997.068 997.068 997.068 997.068 997.068 997.068 997.068 997.068 997.068 997.068 997.068 997.068
          997.068 997.068 997.068 997.068 997.068 997.068 997.068 997.068 997.068 997.068 997.068 997.068
          997.068 997.068 997.068 997.068 997.068 997.068 997.068 997.068 997.068 997.068 997.068 997.068
          997.068 997.068 997.068 997.068 997.068 997.068 997.068 997.068 997.068 997.068 997.068 997.068
          997.068 997.068 997.068 997.068 997.068 997.068 997.068 997.068 997.068 997.068 997.068 997.068
          997.068 997.068 997.068 997.068 997.068 997.068 997.068 997.068 997.068 997.068 997.068 997.068
          997.068 997.068 997.068 997.068 997.068
        </DataArray>
        <DataArray type="Float32" Name="density_g" NumberOfComponents="1" format="ascii">
          1.12612 1.12655 1.12606 1.12631 1.12675 1.12648 1.12686 1.12656 1.12606 1.12603 1.12602 1.126
          1.12602 1.126 1.12602 1.12601 1.12629 1.12626 1.13606 1.13567 1.13659 1.13622 1.13772 1.13734
          1.13945 1.13906 1.14183 1.14141 1.14489 1.14445 1.1487 1.14821 1.15328 1.15275 1.15869 1.1581
          1.16497 1.1643 1.17214 1.17135 1.18004 1.17906 1.18756 1.18626 1.1933 1.19158 1.21657 1.2151
          2.11604 2.07414 1.12604 1.12619 1.1263 1.12636 1.12602 1.126 1.126 1.12601 1.12624 1.13521
          1.13575 1.13684 1.13852 1.14081 1.14376 1.14741 1.15181 1.15699 1.16297 1.16971 1.17695 1.18332
          1.18608 1.20453 2.07048 1.12602 1.12611 1.12618 1.12621 1.12601 1.126 1.126 1.126 1.12622
          1.13466 1.13519 1.13623 1.13783 1.14002 1.14284 1.14632 1.1505 1.15541 1.16106 1.16741 1.17415
          1.17977 1.17883 1.1838 2.06101 1.12602 1.12605 1.12609 1.12611 1.12601 1.126 1.126 1.126
          1.1262 1.13405 1.13455 1.13553 1.13703 1.13908 1.14172 1.14497 1.14887 1.15344 1.15869 1.1646
          1.17097 1.17659 1.17591 1.16245 1.89401 1.12599 1.126 1.12601 1.12602 1.12601 1.126 1.126
          1.126 1.12618 1.13339 1.13384 1.13475 1.13614 1.13802 1.14044 1.14342 1.14699 1.15115 1.15593
          1.16134 1.1674 1.1741 1.18136 1.21336 1.12071 1.12593 1.12593 1.12594 1.12594 1.126 1.126
          1.126 1.126 1.12616 1.13268 1.1331 1.13392 1.13518 1.13688 1.13906 1.14173 1.14492 1.14863
          1.15287 1.15764 1.163 1.16914 1.17631 1.17465 1.17296 1.12586 1.12586 1.12586 1.12586 1.126
          1.126 1.126 1.126 1.12614 1.13196 1.13233 1.13306 1.13418 1.13569 1.13762 1.13997 1.14276
          1.14598 1.14963 1.15366 1.15803 1.16257 1.16629 1.16764 1.16807 1.12577 1.12577 1.12578 1.12578
          1.126 1.126 1.126 1.126 1.12612 1.13122 1.13155 1.1322 1.13317 1.13449 1.13617 1.1382
          1.14059 1.14332 1.14636 1.14965 1.15304 1.15625 1.15881 1.1603 1.16078 1.12568 1.12568 1.12568
          1.12568 1.12599 1.126 1.126 1.126 1.1261 1.1305 1.13078 1.13135 1.13219 1.13333 1.13476
          1.13648 1.13849 1.14077 1.14325 1.14586 1.14846 1.15083 1.15271 1.1539 1.15429 1.12557 1.12557
          1.12557 1.12557 1.12599 1.126 1.126 1.126 1.12608 1.1298 1.13004 1.13053 1.13125 1.13222
          1.13343 1.13487 1.13654 1.1384 1.1404 1.14246 1.14446 1.14625 1.14766 1.14856 1.14887 1.12544
          1.12544 1.12544 1.12545 1.12599 1.126 1.126 1.126 1.12606 1.12913 1.12934 1.12976 1.13038
          1.1312 1.13221 1.13342 1.13479 1.1363 1.13791 1.13953 1.14107 1.14244 1.14351 1.14419 1.14443
          1.1253 1.1253 1.1253 1.1253 1.12598 1.126 1.126 1.126 1.12604 1.12849 1.12868 1.12904
          1.12958 1.13028 1.13114 1.13214 1.13328 1.13451 1.1358 1.13708 1.1383 1.13935 1.14018 1.1407
          1.14088 1.12513 1.12513 1.12514 1.12514 1.12597 1.126 1.126 1.126 1.12603 1.12788 1.12806
          1.1284 1.12887 1.12948 1.13022 1.13107 1.13202 1.13304 1.13409 1.13513 1.1361 1.13694 1.13759
          1.138 1.13814 1.12493 1.12494 1.12497 1.12496 1.12595 1.12598 1.12599 1.12599 1.126 1.12729
          1.12748 1.12782 1.12827 1.12881 1.12946 1.13021 1.13103 1.1319 1.13279 1.13366 1.13447 1.13517
          1.1357 1.13604 1.13615 1.1247 1.12472 1.12477 1.12493 1.12506 1.12531 1.12556 1.12586 1.12623
          1.12657 1.12697 1.12734 1.12777 1.12829 1.12889 1.12956 1.13031 1.13109 1.13189 1.13266 1.13338
          1.13399 1.13446 1.13475 1.13485 1.12442 1.12444 1.12451 1.12463 1.12479 1.125 1.12525 1.12554
          1.12587 1.12622 1.12658 1.12697 1.1274 1.1279 1.12848 1.12914 1.12986 1.13061 1.13138 1.13212
          1.13281 1.13339 1.13383 1.13412 1.13421
        </DataArray>
        <DataArray type="Float32" Name="saturation_l" NumberOfComponents="1" format="ascii">
          0 0 0 0 0 0 0 0 0 0 0 0
          0 0 0 0 0 0 0 0 0 0 0 0
          0 0 0 0 0 0 0 0 0 0 0 0
          0 0 0 0 0 0 0 0 0.0020083 0.00178537 0.423196 0.364966
          0.998313 0.998833 0 0 0 0 0 0 0 0 0 0
          0 0 0 0 0 0 0 0 0 0 0 0
          0.00135387 0.364738 0.999085 0 0 0 0 0 0 0 0 0
          0 0 0 0 0 0 0 0 0 0 0 0
          0 0.000289858 0.346285 0.999985 0 0 0 0 0 0 0 0
          0 0 0 0 0 0 0 0 0 0 0 0
          0 0 1.67112e-05 0.215544 0.996867 0 0 0 0 0 0 0
          0 0 0 0 0 0 0 0 0 0 0 0
          0 0 0 0 0.000543722 0.086328 0 0 0 0 0 0
          0 0 0 0 0 0 0 0 0 0 0 0
          0 0 0 0 0 0 0 0 0 0 0 0
          0 0 0 0 0 0 0 0 0 0 0 0
          0 0 0 0 0 0 0 0 0 0 0 0
          0 0 0 0 0 0 0 0 0 0 0 0
          0 0 0 0 0 0 0 0 0 0 0 0
          0 0 0 0 0 0 0 0 0 0 0 0
          0 0 0 0 0 0 0 0 0 0 0 0
          0 0 0 0 0 0 0 0 0 0 0 0
          0 0 0 0 0 0 0 0 0 0 0 0
          0 0 0 0 0 0 0 0 0 0 0 0
          0 0 0 0 0 0 0 0 0 0 0 0
          0 0 0 0 0 0 0 0 0 0 0 0
          0 0 0 0 0 0 0 0 0 0 0 0
          0 0 0 0 0 0 0 0 0 0 0 0
          0 0 0 0 0 0 0 0 0 0 0 0
          0 0 0 0 0 0 0 0 0 0 0 0
          0 0 0 0 0 0 0 0 0 0 0 0
          0 0 0 0 0 0 0 0 0 0 0 0
          0 0 0 0 0 0 0 0 0 0 0 0
          0 0 0 0 0 0 0 0 0 0 0 0
          0 0 0 0 0 0 0 0 0 0 0 0
          0 0 0 0 0
        </DataArray>
        <DataArray type="Float32" Name="saturation_g" NumberOfComponents="1" format="ascii">
          1 1 1 1 1 1 1 1 1 1 1 1
          1 1 1 1 1 1 1 1 1 1 1 1
          1 1 1 1 1 1 1 1 1 1 1 1
          1 1 1 1 1 1 1 1 0.997992 0.998215 0.576804 0.635034
          0.00168726 0.00116709 1 1 1 1 1 1 1 1 1 1
          1 1 1 1 1 1 1 1 1 1 1 1
          0.998646 0.635262 0.000914994 1 1 1 1 1 1 1 1 1
          1 1 1 1 1 1 1 1 1 1 1 1
          1 0.99971 0.653715 1.53898e-05 1 1 1 1 1 1 1 1
          1 1 1 1 1 1 1 1 1 1 1 1
          1 1 0.999983 0.784456 0.00313273 1 1 1 1 1 1 1
          1 1 1 1 1 1 1 1 1 1 1 1
          1 1 1 1 0.999456 0.913672 1 1 1 1 1 1
          1 1 1 1 1 1 1 1 1 1 1 1
          1 1 1 1 1 1 1 1 1 1 1 1
          1 1 1 1 1 1 1 1 1 1 1 1
          1 1 1 1 1 1 1 1 1 1 1 1
          1 1 1 1 1 1 1 1 1 1 1 1
          1 1 1 1 1 1 1 1 1 1 1 1
          1 1 1 1 1 1 1 1 1 1 1 1
          1 1 1 1 1 1 1 1 1 1 1 1
          1 1 1 1 1 1 1 1 1 1 1 1
          1 1 1 1 1 1 1 1 1 1 1 1
          1 1 1 1 1 1 1 1 1 1 1 1
          1 1 1 1 1 1 1 1 1 1 1 1
          1 1 1 1 1 1 1 1 1 1 1 1
          1 1 1 1 1 1 1 1 1 1 1 1
          1 1 1 1 1 1 1 1 1 1 1 1
          1 1 1 1 1 1 1 1 1 1 1 1
          1 1 1 1 1 1 1 1 1 1 1 1
          1 1 1 1 1 1 1 1 1 1 1 1
          1 1 1 1 1 1 1 1 1 1 1 1
          1 1 1 1 1 1 1 1 1 1 1 1
          1 1 1 1 1 1 1 1 1 1 1 1
          1 1 1 1 1 1 1 1 1 1 1 1
          1 1 1 1 1
        </DataArray>
        <DataArray type="Float32" Name="relativePerm_l" NumberOfComponents="1" format="ascii">
          0 0 0 0 0 0 0 0 0 0 0 0
          0 0 0 0 0 0 0 0 0 0 0 0
          0 0 0 0 0 0 0 0 0 0 0 0
          0 0 0 0 0 0 0 0 3.60312e-05 2.84604e-05 0.418929 0.357464
          0.999975 0.999988 0 0 0 0 0 0 0 0 0 0
          0 0 0 0 0 0 0 0 0 0 0 0
          1.63481e-05 0.357223 0.999993 0 0 0 0 0 0 0 0 0
          0 0 0 0 0 0 0 0 0 0 0 0
          0 7.47366e-07 0.337746 1 0 0 0 0 0 0 0 0
          0 0 0 0 0 0 0 0 0 0 0 0
          0 0 2.48247e-09 0.19974 0.999912 0 0 0 0 0 0 0
          0 0 0 0 0 0 0 0 0 0 0 0
          0 0 0 0 2.63143e-06 0.0633463 0 0 0 0 0 0
          0 0 0 0 0 0 0 0 0 0 0 0
          0 0 0 0 0 0 0 0 0 0 0 0
          0 0 0 0 0 0 0 0 0 0 0 0
          0 0 0 0 0 0 0 0 0 0 0 0
          0 0 0 0 0 0 0 0 0 0 0 0
          0 0 0 0 0 0 0 0 0 0 0 0
          0 0 0 0 0 0 0 0 0 0 0 0
          0 0 0 0 0 0 0 0 0 0 0 0
          0 0 0 0 0 0 0 0 0 0 0 0
          0 0 0 0 0 0 0 0 0 0 0 0
          0 0 0 0 0 0 0 0 0 0 0 0
          0 0 0 0 0 0 0 0 0 0 0 0
          0 0 0 0 0 0 0 0 0 0 0 0
          0 0 0 0 0 0 0 0 0 0 0 0
          0 0 0 0 0 0 0 0 0 0 0 0
          0 0 0 0 0 0 0 0 0 0 0 0
          0 0 0 0 0 0 0 0 0 0 0 0
          0 0 0 0 0 0 0 0 0 0 0 0
          0 0 0 0 0 0 0 0 0 0 0 0
          0 0 0 0 0 0 0 0 0 0 0 0
          0 0 0 0 0 0 0 0 0 0 0 0
          0 0 0 0 0 0 0 0 0 0 0 0
          0 0 0 0 0
        </DataArray>
        <DataArray type="Float32" Name="relativePerm_g" NumberOfComponents="1" format="ascii">
          1 1 1 1 1 1 1 1 1 1 1 1
          1 1 1 1 1 1 1 1 1 1 1 1
          1 1 1 1 1 1 1 1 1 1 1 1
          1 1 1 1 1 1 1 1 0.999964 0.999972 0.581071 0.642536
          2.54121e-05 1.2143e-05 1 1 1 1 1 1 1 1 1 1
          1 1 1 1 1 1 1 1 1 1 1 1
          0.999984 0.642777 7.45893e-06 1 1 1 1 1 1 1 1 1
          1 1 1 1 1 1 1 1 1 1 1 1
          1 0.999999 0.662254 2.10537e-09 1 1 1 1 1 1 1 1
          1 1 1 1 1 1 1 1 1 1 1 1
          1 1 1 0.80026 8.79186e-05 1 1 1 1 1 1 1
          1 1 1 1 1 1 1 1 1 1 1 1
          1 1 1 1 0.999997 0.936654 1 1 1 1 1 1
          1 1 1 1 1 1 1 1 1 1 1 1
          1 1 1 1 1 1 1 1 1 1 1 1
          1 1 1 1 1 1 1 1 1 1 1 1
          1 1 1 1 1 1 1 1 1 1 1 1
          1 1 1 1 1 1 1 1 1 1 1 1
          1 1 1 1 1 1 1 1 1 1 1 1
          1 1 1 1 1 1 1 1 1 1 1 1
          1 1 1 1 1 1 1 1 1 1 1 1
          1 1 1 1 1 1 1 1 1 1 1 1
          1 1 1 1 1 1 1 1 1 1 1 1
          1 1 1 1 1 1 1 1 1 1 1 1
          1 1 1 1 1 1 1 1 1 1 1 1
          1 1 1 1 1 1 1 1 1 1 1 1
          1 1 1 1 1 1 1 1 1 1 1 1
          1 1 1 1 1 1 1 1 1 1 1 1
          1 1 1 1 1 1 1 1 1 1 1 1
          1 1 1 1 1 1 1 1 1 1 1 1
          1 1 1 1 1 1 1 1 1 1 1 1
          1 1 1 1 1 1 1 1 1 1 1 1
          1 1 1 1 1 1 1 1 1 1 1 1
          1 1 1 1 1 1 1 1 1 1 1 1
          1 1 1 1 1 1 1 1 1 1 1 1
          1 1 1 1 1
        </DataArray>
        <DataArray type="Float32" Name="porosity" NumberOfComponents="1" format="ascii">
          0.3 0.3 0.3 0.3 0.3 0.3 0.3 0.3 0.3 0.3 0.3 0.3
          0.3 0.3 0.3 0.3 0.3 0.3 0.3 0.3 0.3 0.3 0.3 0.3
          0.3 0.3 0.3 0.3 0.3 0.3 0.3 0.3 0.3 0.3 0.3 0.3
          0.3 0.3 0.3 0.3 0.3 0.3 0.3 0.3 0.3 0.3 0.3 0.3
          0.3 0.3 0.3 0.3 0.3 0.3 0.3 0.3 0.3 0.3 0.3 0.3
          0.3 0.3 0.3 0.3 0.3 0.3 0.3 0.3 0.3 0.3 0.3 0.3
          0.3 0.3 0.3 0.3 0.3 0.3 0.3 0.3 0.3 0.3 0.3 0.3
          0.3 0.3 0.3 0.3 0.3 0.3 0.3 0.3 0.3 0.3 0.3 0.3
          0.3 0.3 0.3 0.3 0.3 0.3 0.3 0.3 0.3 0.3 0.3 0.3
          0.3 0.3 0.3 0.3 0.3 0.3 0.3 0.3 0.3 0.3 0.3 0.3
          0.3 0.3 0.3 0.3 0.3 0.3 0.3 0.3 0.3 0.3 0.3 0.3
          0.3 0.3 0.3 0.3 0.3 0.3 0.3 0.3 0.3 0.3 0.3 0.3
          0.3 0.3 0.3 0.3 0.3 0.3 0.3 0.3 0.3 0.3 0.3 0.3
          0.3 0.3 0.3 0.3 0.3 0.3 0.3 0.3 0.3 0.3 0.3 0.3
          0.3 0.3 0.3 0.3 0.3 0.3 0.3 0.3 0.3 0.3 0.3 0.3
          0.3 0.3 0.3 0.3 0.3 0.3 0.3 0.3 0.3 0.3 0.3 0.3
          0.3 0.3 0.3 0.3 0.3 0.3 0.3 0.3 0.3 0.3 0.3 0.3
          0.3 0.3 0.3 0.3 0.3 0.3 0.3 0.3 0.3 0.3 0.3 0.3
          0.3 0.3 0.3 0.3 0.3 0.3 0.3 0.3 0.3 0.3 0.3 0.3
          0.3 0.3 0.3 0.3 0.3 0.3 0.3 0.3 0.3 0.3 0.3 0.3
          0.3 0.3 0.3 0.3 0.3 0.3 0.3 0.3 0.3 0.3 0.3 0.3
          0.3 0.3 0.3 0.3 0.3 0.3 0.3 0.3 0.3 0.3 0.3 0.3
          0.3 0.3 0.3 0.3 0.3 0.3 0.3 0.3 0.3 0.3 0.3 0.3
          0.3 0.3 0.3 0.3 0.3 0.3 0.3 0.3 0.3 0.3 0.3 0.3
          0.3 0.3 0.3 0.3 0.3 0.3 0.3 0.3 0.3 0.3 0.3 0.3
          0.3 0.3 0.3 0.3 0.3 0.3 0.3 0.3 0.3 0.3 0.3 0.3
          0.3 0.3 0.3 0.3 0.3 0.3 0.3 0.3 0.3 0.3 0.3 0.3
          0.3 0.3 0.3 0.3 0.3 0.3 0.3 0.3 0.3 0.3 0.3 0.3
          0.3 0.3 0.3 0.3 0.3 0.3 0.3 0.3 0.3 0.3 0.3 0.3
          0.3 0.3 0.3 0.3 0.3 0.3 0.3 0.3 0.3 0.3 0.3 0.3
          0.3 0.3 0.3 0.3 0.3 0.3 0.3 0.3 0.3 0.3 0.3 0.3
          0.3 0.3 0.3 0.3 0.3 0.3 0.3 0.3 0.3 0.3 0.3 0.3
          0.3 0.3 0.3 0.3 0.3 0.3 0.3 0.3 0.3 0.3 0.3 0.3
          0.3 0.3 0.3 0.3 0.3 0.3 0.3 0.3 0.3 0.3 0.3 0.3
          0.3 0.3 0.3 0.3 0.3 0.3 0.3 0.3 0.3 0.3 0.3 0.3
          0.3 0.3 0.3 0.3 0.3
        </DataArray>
        <DataArray type="Float32" Name="moleFrac_l^H2O" NumberOfComponents="1" format="ascii">
          0.315516 0.315635 0.315499 0.31557 0.315692 0.315618 0.315723 0.31564 0.315499 0.315491 0.315488 0.315483
          0.315488 0.315483 0.315489 0.315483 0.315562 0.315554 0.318299 0.318191 0.318449 0.318345 0.318765 0.318659
          0.319251 0.319141 0.319917 0.3198 0.320776 0.320651 0.321841 0.321706 0.323127 0.322978 0.324664 0.324496
          0.326754 0.326527 0.332579 0.331972 0.366344 0.36352 0.539974 0.531602 0.999988 0.999988 0.999988 0.999988
          0.999979 0.999979 0.315492 0.315535 0.315566 0.315582 0.315488 0.315483 0.315483 0.315483 0.315549 0.318061
          0.318213 0.318519 0.318988 0.31963 0.320457 0.321481 0.322714 0.324179 0.32607 0.330627 0.356466 0.504913
          0.999988 0.999988 0.999979 0.315488 0.315513 0.315532 0.315541 0.315486 0.315483 0.315483 0.315483 0.315543
          0.317909 0.318055 0.318349 0.318797 0.31941 0.320199 0.321174 0.322347 0.323731 0.325453 0.329072 0.348737
          0.470499 0.999988 0.999988 0.999979 0.315486 0.315497 0.315506 0.315512 0.315484 0.315483 0.315483 0.315483
          0.315538 0.317738 0.317876 0.318152 0.318573 0.319147 0.319885 0.320796 0.32189 0.323174 0.324716 0.327478
          0.342209 0.450903 0.999988 0.999988 0.999981 0.315479 0.315481 0.315485 0.315488 0.315483 0.315483 0.315483
          0.315483 0.315532 0.317552 0.317679 0.317934 0.318322 0.318851 0.319528 0.320363 0.321362 0.32253 0.323882
          0.325623 0.330501 0.365727 0.591498 0.999988 0.999989 0.315462 0.315463 0.315465 0.315466 0.315483 0.315483
          0.315483 0.315483 0.315526 0.317354 0.31747 0.317701 0.318053 0.31853 0.319141 0.31989 0.320783 0.321823
          0.323012 0.324377 0.326336 0.333701 0.382399 0.587964 0.407782 0.315442 0.315442 0.315443 0.315444 0.315482
          0.315483 0.315483 0.315483 0.315521 0.317151 0.317254 0.317461 0.317773 0.318197 0.318737 0.319396 0.320178
          0.321081 0.322101 0.323233 0.324497 0.326318 0.33254 0.357567 0.334955 0.315418 0.315419 0.315419 0.31542
          0.315481 0.315483 0.315483 0.315483 0.315515 0.316945 0.317037 0.317218 0.317492 0.317862 0.31833 0.3189
          0.31957 0.320335 0.321187 0.322107 0.323059 0.323997 0.325083 0.327437 0.325924 0.315392 0.315392 0.315392
          0.315393 0.31548 0.315483 0.315483 0.315483 0.31551 0.316742 0.316822 0.316979 0.317216 0.317535 0.317935
          0.318419 0.318982 0.319619 0.320314 0.321046 0.321774 0.32244 0.322987 0.323428 0.323456 0.315361 0.315361
          0.315361 0.315362 0.315479 0.315483 0.315483 0.315483 0.315504 0.316545 0.316615 0.31675 0.316953 0.317224
          0.317563 0.317968 0.318436 0.318957 0.319517 0.320094 0.320654 0.321154 0.321551 0.321807 0.321891 0.315325
          0.315325 0.315326 0.315327 0.315478 0.315483 0.315483 0.315483 0.315499 0.316358 0.316417 0.316534 0.316708
          0.316938 0.317223 0.31756 0.317945 0.318369 0.318818 0.319272 0.319705 0.320087 0.320387 0.320579 0.320644
          0.315285 0.315285 0.315286 0.315287 0.315476 0.315483 0.315483 0.315483 0.315494 0.316179 0.316232 0.316335
          0.316485 0.316681 0.316921 0.317203 0.317521 0.317866 0.318227 0.318587 0.318927 0.319223 0.319454 0.3196
          0.319651 0.315238 0.315239 0.315241 0.315242 0.315474 0.315482 0.315483 0.315483 0.315489 0.316009 0.316059
          0.316153 0.316287 0.316457 0.316663 0.316902 0.317168 0.317454 0.317749 0.318041 0.318313 0.318548 0.31873
          0.318845 0.318884 0.315183 0.315186 0.315193 0.315191 0.315467 0.315477 0.315478 0.31548 0.315483 0.315842
          0.315897 0.315992 0.316117 0.31627 0.316452 0.31666 0.31689 0.317134 0.317385 0.317629 0.317855 0.31805
          0.318199 0.318294 0.318326 0.315118 0.315123 0.315138 0.315181 0.31522 0.315289 0.31536 0.315441 0.315546
          0.315642 0.315753 0.315857 0.315978 0.316122 0.31629 0.31648 0.316688 0.316908 0.317132 0.317349 0.317549
          0.31772 0.317851 0.317933 0.317961 0.315039 0.315044 0.315064 0.315097 0.315143 0.315203 0.315273 0.315354
          0.315446 0.315543 0.315645 0.315753 0.315874 0.316015 0.316178 0.316362 0.316562 0.316774 0.316989 0.317198
          0.317389 0.317552 0.317677 0.317756 0.317782
        </DataArray>
        <DataArray type="Float32" Name="moleFrac_l^N2" NumberOfComponents="1" format="ascii">
          1.14733e-05 1.14777e-05 1.14727e-05 1.14753e-05 1.14797e-05 1.1477e-05 1.14808e-05 1.14778e-05 1.14727e-05 1.14724e-05 1.14723e-05 1.14721e-05
          1.14723e-05 1.14721e-05 1.14723e-05 1.14721e-05 1.1475e-05 1.14747e-05 1.15745e-05 1.15706e-05 1.158e-05 1.15762e-05 1.15915e-05 1.15876e-05
          1.16091e-05 1.16051e-05 1.16333e-05 1.16291e-05 1.16646e-05 1.16601e-05 1.17033e-05 1.16984e-05 1.175e-05 1.17446e-05 1.18052e-05 1.17991e-05
          1.1869e-05 1.18622e-05 1.19412e-05 1.19332e-05 1.20142e-05 1.20048e-05 1.20501e-05 1.20388e-05 1.2e-05 1.19824e-05 1.22387e-05 1.22236e-05
          2.14622e-05 2.10325e-05 1.14724e-05 1.1474e-05 1.14752e-05 1.14757e-05 1.14723e-05 1.14721e-05 1.14721e-05 1.14721e-05 1.14745e-05 1.15659e-05
          1.15714e-05 1.15825e-05 1.15996e-05 1.16229e-05 1.1653e-05 1.16902e-05 1.17351e-05 1.17878e-05 1.18486e-05 1.19167e-05 1.19849e-05 1.2015e-05
          1.1926e-05 1.21152e-05 2.0995e-05 1.14723e-05 1.14732e-05 1.14739e-05 1.14742e-05 1.14722e-05 1.14721e-05 1.14721e-05 1.14721e-05 1.14743e-05
          1.15604e-05 1.15657e-05 1.15763e-05 1.15926e-05 1.16149e-05 1.16436e-05 1.16791e-05 1.17217e-05 1.17718e-05 1.18293e-05 1.18935e-05 1.19579e-05
          1.19867e-05 1.18517e-05 1.19026e-05 2.08979e-05 1.14722e-05 1.14726e-05 1.1473e-05 1.14732e-05 1.14722e-05 1.14721e-05 1.14721e-05 1.14721e-05
          1.14741e-05 1.15541e-05 1.15591e-05 1.15692e-05 1.15845e-05 1.16054e-05 1.16322e-05 1.16653e-05 1.17051e-05 1.17517e-05 1.18052e-05 1.18651e-05
          1.19269e-05 1.19588e-05 1.18217e-05 1.16837e-05 1.91854e-05 1.1472e-05 1.1472e-05 1.14722e-05 1.14723e-05 1.14721e-05 1.14721e-05 1.14721e-05
          1.14721e-05 1.14739e-05 1.15474e-05 1.1552e-05 1.15613e-05 1.15754e-05 1.15946e-05 1.16192e-05 1.16496e-05 1.16859e-05 1.17284e-05 1.17771e-05
          1.18321e-05 1.18931e-05 1.19534e-05 1.19744e-05 1.22057e-05 1.12557e-05 1.14714e-05 1.14714e-05 1.14715e-05 1.14715e-05 1.14721e-05 1.14721e-05
          1.14721e-05 1.14721e-05 1.14737e-05 1.15402e-05 1.15444e-05 1.15528e-05 1.15656e-05 1.15829e-05 1.16051e-05 1.16324e-05 1.16649e-05 1.17027e-05
          1.17458e-05 1.17945e-05 1.1849e-05 1.19101e-05 1.19721e-05 1.19064e-05 1.19318e-05 1.14706e-05 1.14706e-05 1.14707e-05 1.14707e-05 1.14721e-05
          1.14721e-05 1.14721e-05 1.14721e-05 1.14735e-05 1.15328e-05 1.15365e-05 1.1544e-05 1.15554e-05 1.15708e-05 1.15904e-05 1.16144e-05 1.16428e-05
          1.16757e-05 1.17128e-05 1.17539e-05 1.17984e-05 1.18445e-05 1.18812e-05 1.18891e-05 1.18989e-05 1.14698e-05 1.14698e-05 1.14698e-05 1.14698e-05
          1.1472e-05 1.14721e-05 1.14721e-05 1.14721e-05 1.14733e-05 1.15253e-05 1.15286e-05 1.15352e-05 1.15452e-05 1.15586e-05 1.15757e-05 1.15964e-05