<?xml version="1.0"?>
<VTKFile type="UnstructuredGrid" version="0.1" byte_order="LittleEndian">
  <UnstructuredGrid>
    <Piece NumberOfCells="384" NumberOfPoints="425">
      <PointData Scalars="pressure_l">
        <DataArray type="Float32" Name="pressure_l" NumberOfComponents="1" format="ascii">
          100011 100048 100005 100028 100066 100043 100076 100050 100005 100003 100002 100000
          100002 100000 100002 100000 100025 100023 100894 100860 100942 100909 101042 101008
          101196 101161 101407 101370 101680 101640 102017 101974 102424 102377 102904 102851
          103460 103401 104100 104030 104835 104746 105694 105570 106718 106566 108776 108647
          188382 184673 100003 100017 100027 100031 100002 100000 100000 100000 100021 100818
          100867 100964 101113 101316 101578 101903 102293 102753 103283 103883 104552 105281
          106080 107713 184350 100002 100010 100016 100019 100001 100000 100000 100000 100019
          100770 100817 100910 101052 101247 101497 101806 102177 102613 103114 103678 104295
          104929 105440 105877 183541 100001 100004 100008 100009 100001 100000 100000 100000
          100017 100716 100760 100847 100981 101163 101397 101686 102032 102438 102904 103429
          104008 104627 105183 103992 168741 99998.8 99999.5 100001 100002 100000 100000 100000
          100000 100016 100657 100697 100778 100901 101069 101284 101549 101865 102235 102659
          103139 103680 104311 105208 108499 100301 99993.5 99993.8 99994.3 99994.7 100000 100000
          100000 100000 100014 100594 100631 100704 100816 100967 101161 101399 101682 102011
          102388 102811 103287 103838 104527 104611 104259 99987.1 99987.2 99987.4 99987.7 99999.7
          100000 100000 100000 100012 100529 100562 100628 100727 100862 101033 101242 101490
          101776 102100 102458 102845 103249 103585 103732 103745 99979.6 99979.7 99979.8 99980
          99999.5 100000 100000 100000 100010 100464 100493 100551 100638 100755 100904 101085
          101297 101540 101810 102101 102402 102688 102916 103050 103090 99971.1 99971.1 99971.3
          99971.4 99999.2 100000 100000 100000 100009 100399 100425 100475 100550 100651 100778
          100932 101111 101313 101533 101765 101996 102207 102374 102479 102514 99961.3 99961.3
          99961.5 99961.7 99998.9 100000 100000 100000 100007 100337 100359 100402 100467 100553
          100660 100789 100937 101103 101281 101463 101641 101800 101925 102005 102033 99950.1
          99950.1 99950.3 99950.5 99998.4 100000 100000 100000 100005 100277 100296 100333 100389
          100462 100552 100659 100782 100916 101059 101203 101340 101462 101557 101617 101638
          99937.2 99937.3 99937.5 99937.8 99997.9 100000 100000 100000 100004 100221 100238 100270
          100318 100380 100456 100546 100647 100757 100871 100986 101093 101187 101261 101307
          101323 99922.3 99922.6 99923.2 99923.5 99997.3 99999.9 100000 100000 100002 100167 100183
          100212 100255 100309 100375 100450 100535 100626 100720 100812 100898 100973 101031
          101067 101080 99905 99905.9 99908.1 99907.5 99995.1 99998.1 99998.6 99999 100000 100114
          100131 100161 100201 100250 100308 100374 100447 100524 100604 100681 100753 100815
          100862 100892 100903 99884.4 99885.8 99890.7 99904.2 99916.4 99938.2 99960.7 99986.5 100020
          100050 100085 100118 100157 100203 100256 100316 100382 100452 100523 100592 100656
          100710 100752 100778 100787 99859.2 99861 99867.1 99877.7 99892.2 99911 99933.2 99958.9
          99987.9 100019 100051 100085 100124 100169 100220 100279 100343 100410 100478 100544
          100605 100657 100697 100722 100730
        </DataArray>
        <DataArray type="Float32" Name="pressure_g" NumberOfComponents="1" format="ascii">
          100011 100048 100005 100028 100066 100043 100076 100050 100005 100003 100002 100000
          100002 100000 100002 100000 100025 100023 100894 100860 100942 100909 101042 101008
          101196 101161 101407 101370 101680 101640 102017 101974 102424 102377 102904 102851
          103460 103401 104100 104030 104835 104746 105694 105570 106718 106566 108776 108647
          188382 184673 100003 100017 100027 100031 100002 100000 100000 100000 100021 100818
          100867 100964 101113 101316 101578 101903 102293 102753 103283 103883 104552 105281
          106080 107713 184350 100002 100010 100016 100019 100001 100000 100000 100000 100019
          100770 100817 100910 101052 101247 101497 101806 102177 102613 103114 103678 104295
          104929 105440 105877 183541 100001 100004 100008 100009 100001 100000 100000 100000
          100017 100716 100760 100847 100981 101163 101397 101686 102032 102438 102904 103429
          104008 104627 105183 103992 168741 99998.8 99999.5 100001 100002 100000 100000 100000
          100000 100016 100657 100697 100778 100901 101069 101284 101549 101865 102235 102659
          103139 103680 104311 105208 108499 100301 99993.5 99993.8 99994.3 99994.7 100000 100000
          100000 100000 100014 100594 100631 100704 100816 100967 101161 101399 101682 102011
          102388 102811 103287 103838 104527 104611 104259 99987.1 99987.2 99987.4 99987.7 99999.7
          100000 100000 100000 100012 100529 100562 100628 100727 100862 101033 101242 101490
          101776 102100 102458 102845 103249 103585 103732 103745 99979.6 99979.7 99979.8 99980
          99999.5 100000 100000 100000 100010 100464 100493 100551 100638 100755 100904 101085
          101297 101540 101810 102101 102402 102688 102916 103050 103090 99971.1 99971.1 99971.3
          99971.4 99999.2 100000 100000 100000 100009 100399 100425 100475 100550 100651 100778
          100932 101111 101313 101533 101765 101996 102207 102374 102479 102514 99961.3 99961.3
          99961.5 99961.7 99998.9 100000 100000 100000 100007 100337 100359 100402 100467 100553
          100660 100789 100937 101103 101281 101463 101641 101800 101925 102005 102033 99950.1
          99950.1 99950.3 99950.5 99998.4 100000 100000 100000 100005 100277 100296 100333 100389
          100462 100552 100659 100782 100916 101059 101203 101340 101462 101557 101617 101638
          99937.2 99937.3 99937.5 99937.8 99997.9 100000 100000 100000 100004 100221 100238 100270
          100318 100380 100456 100546 100647 100757 100871 100986 101093 101187 101261 101307
          101323 99922.3 99922.6 99923.2 99923.5 99997.3 99999.9 100000 100000 100002 100167 100183
          100212 100255 100309 100375 100450 100535 100626 100720 100812 100898 100973 101031
          101067 101080 99905 99905.9 99908.1 99907.5 99995.1 99998.1 99998.6 99999 100000 100114
          100131 100161 100201 100250 100308 100374 100447 100524 100604 100681 100753 100815
          100862 100892 100903 99884.4 99885.8 99890.7 99904.2 99916.4 99938.2 99960.7 99986.5 100020
          100050 100085 100118 100157 100203 100256 100316 100382 100452 100523 100592 100656
          100710 100752 100778 100787 99859.2 99861 99867.1 99877.7 99892.2 99911 99933.2 99958.9
          99987.9 100019 100051 100085 100124 100169 100220 100279 100343 100410 100478 100544
          100605 100657 100697 100722 100730
        </DataArray>
        <DataArray type="Float32" Name="density_l" NumberOfComponents="1" format="ascii">
          997.068 997.068 997.068 997.068 997.068 997.068 997.068 997.068 997.068 997.068 997.068 997.068
          997.068 997.068 997.068 997.068 997.068 997.068 997.068 997.068 997.068 997.068 997.068 997.068
          997.068 997.068 997.068 997.068 997.069 997.069 997.069 997.069 997.069 997.069 997.069 997.069
          997.069 997.069 997.069 997.069 997.068 997.068 997.062 997.063 997.057 997.057 997.058 997.058
          997.099 997.097 997.068 997.068 997.068 997.068 997.068 997.068 997.068 997.068 997.068 997.068
          997.068 997.068 997.068 997.068 997.068 997.069 997.069 997.069 997.069 997.069 997.068 997.063
          997.057 997.058 997.097 997.068 997.068 997.068 997.068 997.068 997.068 997.068 997.068 997.068
          997.068 997.068 997.068 997.068 997.068 997.068 997.069 997.069 997.069 997.069 997.069 997.069
          997.064 997.057 997.057 997.097 997.068 997.068 997.068 997.068 997.068 997.068 997.068 997.068
          997.068 997.068 997.068 997.068 997.068 997.068 997.068 997.069 997.069 997.069 997.069 997.069
          997.069 997.065 997.057 997.056 997.089 997.068 997.068 997.068 997.068 997.068 997.068 997.068
          997.068 997.068 997.068 997.068 997.068 997.068 997.068 997.068 997.068 997.069 997.069 997.069
          997.069 997.069 997.068 997.061 997.058 997.054 997.068 997.068 997.068 997.068 997.068 997.068
          997.068 997.068 997.068 997.068 997.068 997.068 997.068 997.068 997.068 997.068 997.069 997.069
          997.069 997.069 997.069 997.069 997.067 997.061 997.066 997.068 997.068 997.068 997.068 997.068
          997.068 997.068 997.068 997.068 997.068 997.068 997.068 997.068 997.068 997.068 997.068 997.068
          997.069 997.069 997.069 997.069 997.069 997.069 997.068 997.069 997.068 997.068 997.068 997.068
          997.068 997.068 997.068 997.068 997.068 997.068 997.068 997.068 997.068 997.068 997.068 997.068
          997.068 997.068 997.069 997.069 997.069 997.069 997.069 997.069 997.069 997.068 997.068 997.068
          997.068 997.068 997.068 997.068 997.068 997.068 997.068 997.068 997.068 997.068 997.068 997.068
          997.068 997.068 997.068 997.068 997.069 997.069 997.069 997.069 997.069 997.069 997.068 997.068
          997.068 997.068 997.068 997.068 997.068 997.068 997.068 997.068 997.068 997.068 997.068 997.068
          997.068 997.068 997.068 997.068 997.068 997.068 997.069 997.069 997.069 997.069 997.069 997.068
          997.068 997.068 997.068 997.068 997.068 997.068 997.068 997.068 997.068 997.068 997.068 997.068
          997.068 997.068 997.068 997.068 997.068 997.068 997.068 997.068 997.068 997.068 997.069 997.069
          997.068 997.068 997.068 997.068 997.068 997.068 997.068 997.068 997.068 997.068 997.068 997.068
          997.068 997.068 997.068 997.068 997.068 997.068 997.068 997.068 997.068 997.068 997.068 997.068
          997.068 997.068 997.068 997.068 997.068 997.068 997.068 997.068 997.068 997.068 997.068 997.068
          997.068 997.068 997.068 997.068 997.068 997.068 997.068 997.068 997.068 997.068 997.068 997.068
          997.068 997.068 997.068 997.068 997.068 997.068 997.068 997.068 997.068 997.068 997.068 997.068
          997.068 997.068 997.068 997.068 997.068 997.068 997.068 997.068 997.068 997.068 997.068 997.068
          997.068 997.068 997.068 997.068 997.068 997.068 997.068 997.068 997.068 997.068 997.068 997.068
          997.068 997.068 997.068 997.068 997.068 997.068 997.068 997.068 997.068 997.068 997.068 997.068
          997.068 997.068 997.068 997.068 997.068 997.068 997.068 997.068 997.068 997.068 997.068 997.068
          997.068 997.068 997.068 997.068 997.068 997.068 997.068 997.068 997.068 997.068 997.068 997.068
          997.068 997.068 997.068 997.068 997.068
        </DataArray>
        <DataArray type="Float32" Name="density_g" NumberOfComponents="1" format="ascii">
          1.12612 1.12655 1.12606 1.12631 1.12675 1.12648 1.12686 1.12656 1.12606 1.12603 1.12602 1.126
          1.12602 1.126 1.12602 1.12601 1.12629 1.12626 1.13607 1.13568 1.13661 1.13624 1.13773 1.13736
          1.13947 1.13908 1.14185 1.14143 1.14491 1.14447 1.14872 1.14823 1.1533 1.15277 1.1587 1.15811
          1.16496 1.16429 1.17212 1.17133 1.17998 1.179 1.18744 1.18612 1.19322 1.1915 1.21647 1.21501
          2.11606 2.07415 1.12604 1.12619 1.1263 1.12636 1.12602 1.126 1.126 1.12601 1.12624 1.13522
          1.13576 1.13686 1.13853 1.14083 1.14378 1.14743 1.15183 1.157 1.16296 1.16969 1.17689 1.18317
          1.18601 1.20446 2.07049 1.12602 1.12611 1.12618 1.12621 1.12601 1.126 1.126 1.126 1.12622
          1.13468 1.1352 1.13625 1.13785 1.14004 1.14285 1.14634 1.15052 1.15543 1.16107 1.16739 1.17412
          1.17971 1.17878 1.18371 2.0612 1.12602 1.12605 1.12609 1.12611 1.12601 1.126 1.126 1.126
          1.1262 1.13407 1.13456 1.13554 1.13705 1.1391 1.14174 1.14499 1.14889 1.15346 1.1587 1.1646
          1.17096 1.17659 1.17587 1.16241 1.8941 1.12599 1.126 1.12601 1.12602 1.12601 1.126 1.126
          1.126 1.12618 1.1334 1.13385 1.13477 1.13615 1.13804 1.14046 1.14344 1.14701 1.15117 1.15595
          1.16135 1.1674 1.17409 1.18136 1.21334 1.1207 1.12593 1.12593 1.12594 1.12594 1.126 1.126
          1.126 1.126 1.12616 1.13269 1.13311 1.13393 1.13519 1.1369 1.13908 1.14175 1.14494 1.14865
          1.15289 1.15766 1.16301 1.16914 1.17632 1.17466 1.17296 1.12586 1.12586 1.12586 1.12586 1.126
          1.126 1.126 1.126 1.12614 1.13196 1.13233 1.13307 1.13419 1.1357 1.13763 1.13999 1.14278
          1.146 1.14965 1.15368 1.15804 1.16258 1.1663 1.16765 1.16808 1.12577 1.12577 1.12578 1.12578
          1.126 1.126 1.126 1.126 1.12612 1.13123 1.13155 1.1322 1.13318 1.13451 1.13618 1.13822
          1.14061 1.14334 1.14639 1.14967 1.15306 1.15627 1.15883 1.16031 1.16079 1.12568 1.12568 1.12568
          1.12568 1.12599 1.126 1.126 1.126 1.1261 1.1305 1.13079 1.13135 1.1322 1.13334 1.13477
          1.1365 1.13851 1.14078 1.14327 1.14588 1.14848 1.15085 1.15273 1.15392 1.15432 1.12557 1.12557
          1.12557 1.12557 1.12599 1.126 1.126 1.126 1.12608 1.1298 1.13004 1.13053 1.13126 1.13223
          1.13344 1.13489 1.13656 1.13842 1.14042 1.14248 1.14448 1.14627 1.14768 1.14858 1.14889 1.12544
          1.12544 1.12544 1.12545 1.12599 1.126 1.126 1.126 1.12606 1.12913 1.12934 1.12976 1.13038
          1.1312 1.13222 1.13343 1.1348 1.13632 1.13792 1.13955 1.14109 1.14246 1.14353 1.14421 1.14445
          1.1253 1.1253 1.1253 1.1253 1.12598 1.126 1.126 1.126 1.12604 1.12849 1.12868 1.12904
          1.12958 1.13028 1.13114 1.13215 1.13329 1.13452 1.13581 1.1371 1.13831 1.13937 1.1402 1.14072
          1.1409 1.12513 1.12513 1.12514 1.12514 1.12597 1.126 1.126 1.126 1.12603 1.12788 1.12806
          1.12839 1.12887 1.12948 1.13022 1.13107 1.13202 1.13305 1.1341 1.13515 1.13612 1.13696 1.13761
          1.13802 1.13816 1.12493 1.12494 1.12497 1.12496 1.12595 1.12598 1.12599 1.12599 1.126 1.12728
          1.12748 1.12782 1.12827 1.12881 1.12947 1.13021 1.13103 1.13191 1.1328 1.13368 1.13448 1.13518
          1.13571 1.13605 1.13617 1.1247 1.12472 1.12477 1.12492 1.12506 1.12531 1.12556 1.12585 1.12622
          1.12657 1.12696 1.12734 1.12777 1.12829 1.12889 1.12956 1.13031 1.1311 1.1319 1.13267 1.13339
          1.134 1.13447 1.13476 1.13486 1.12442 1.12444 1.12451 1.12463 1.12479 1.125 1.12525 1.12554
          1.12587 1.12621 1.12658 1.12696 1.1274 1.1279 1.12848 1.12914 1.12986 1.13062 1.13139 1.13213
          1.13282 1.1334 1.13385 1.13413 1.13423
        </DataArray>
        <DataArray type="Float32" Name="saturation_l" NumberOfComponents="1" format="ascii">
          0 0 0 0 0 0 0 0 0 0 0 0
          0 0 0 0 0 0 0 0 0 0 0 0
          0 0 0 0 0 0 0 0 0 0 0 0
          0 0 0 0 0 0 0 0 0.00199304 0.00177214 0.423023 0.36497
          0.99846 0.999017 0 0 0 0 0 0 0 0 0 0
          0 0 0 0 0 0 0 0 0 0 0 0
          0.00134407 0.364744 0.999278 0 0 0 0 0 0 0 0 0
          0 0 0 0 0 0 0 0 0 0 0 0
          0 0.000286583 0.346307 1 0 0 0 0 0 0 0 0
          0 0 0 0 0 0 0 0 0 0 0 0
          0 0 1.39991e-05 0.215482 0.99699 0 0 0 0 0 0 0
          0 0 0 0 0 0 0 0 0 0 0 0
          0 0 0 0 0.000551764 0.0867945 0 0 0 0 0 0
          0 0 0 0 0 0 0 0 0 0 0 0
          0 0 0 0 0 0 0 0 0 0 0 0
          0 0 0 0 0 0 0 0 0 0 0 0
          0 0 0 0 0 0 0 0 0 0 0 0
          0 0 0 0 0 0 0 0 0 0 0 0
          0 0 0 0 0 0 0 0 0 0 0 0
          0 0 0 0 0 0 0 0 0 0 0 0
          0 0 0 0 0 0 0 0 0 0 0 0
          0 0 0 0 0 0 0 0 0 0 0 0
          0 0 0 0 0 0 0 0 0 0 0 0
          0 0 0 0 0 0 0 0 0 0 0 0
          0 0 0 0 0 0 0 0 0 0 0 0
          0 0 0 0 0 0 0 0 0 0 0 0
          0 0 0 0 0 0 0 0 0 0 0 0
          0 0 0 0 0 0 0 0 0 0 0 0
          0 0 0 0 0 0 0 0 0 0 0 0
          0 0 0 0 0 0 0 0 0 0 0 0
          0 0 0 0 0 0 0 0 0 0 0 0
          0 0 0 0 0 0 0 0 0 0 0 0
          0 0 0 0 0 0 0 0 0 0 0 0
          0 0 0 0 0 0 0 0 0 0 0 0
          0 0 0 0 0 0 0 0 0 0 0 0
          0 0 0 0 0
        </DataArray>
        <DataArray type="Float32" Name="saturation_g" NumberOfComponents="1" format="ascii">
          1 1 1 1 1 1 1 1 1 1 1 1
          1 1 1 1 1 1 1 1 1 1 1 1
          1 1 1 1 1 1 1 1 1 1 1 1
          1 1 1 1 1 1 1 1 0.998007 0.998228 0.576977 0.63503
          0.00153964 0.000982689 1 1 1 1 1 1 1 1 1 1
          1 1 1 1 1 1 1 1 1 1 1 1
          0.998656 0.635256 0.000722357 1 1 1 1 1 1 1 1 1
          1 1 1 1 1 1 1 1 1 1 1 1
          1 0.999713 0.653693 0 1 1 1 1 1 1 1 1
          1 1 1 1 1 1 1 1 1 1 1 1
          1 1 0.999986 0.784518 0.00300988 1 1 1 1 1 1 1
          1 1 1 1 1 1 1 1 1 1 1 1
          1 1 1 1 0.999448 0.913206 1 1 1 1 1 1
          1 1 1 1 1 1 1 1 1 1 1 1
          1 1 1 1 1 1 1 1 1 1 1 1
          1 1 1 1 1 1 1 1 1 1 1 1
          1 1 1 1 1 1 1 1 1 1 1 1
          1 1 1 1 1 1 1 1 1 1 1 1
          1 1 1 1 1 1 1 1 1 1 1 1
          1 1 1 1 1 1 1 1 1 1 1 1
          1 1 1 1 1 1 1 1 1 1 1 1
          1 1 1 1 1 1 1 1 1 1 1 1
          1 1 1 1 1 1 1 1 1 1 1 1
          1 1 1 1 1 1 1 1 1 1 1 1
          1 1 1 1 1 1 1 1 1 1 1 1
          1 1 1 1 1 1 1 1 1 1 1 1
          1 1 1 1 1 1 1 1 1 1 1 1
          1 1 1 1 1 1 1 1 1 1 1 1
          1 1 1 1 1 1 1 1 1 1 1 1
          1 1 1 1 1 1 1 1 1 1 1 1
          1 1 1 1 1 1 1 1 1 1 1 1
          1 1 1 1 1 1 1 1 1 1 1 1
          1 1 1 1 1 1 1 1 1 1 1 1
          1 1 1 1 1 1 1 1 1 1 1 1
          1 1 1 1 1 1 1 1 1 1 1 1
          1 1 1 1 1
        </DataArray>
        <DataArray type="Float32" Name="relativePerm_l" NumberOfComponents="1" format="ascii">
          0 0 0 0 0 0 0 0 0 0 0 0
          0 0 0 0 0 0 0 0 0 0 0 0
          0 0 0 0 0 0 0 0 0 0 0 0
          0 0 0 0 0 0 0 0 3.54846e-05 2.8039e-05 0.418746 0.357468
          0.999979 0.999991 0 0 0 0 0 0 0 0 0 0
          0 0 0 0 0 0 0 0 0 0 0 0
          1.6112e-05 0.35723 0.999995 0 0 0 0 0 0 0 0 0
          0 0 0 0 0 0 0 0 0 0 0 0
          0 7.30566e-07 0.337769 1 0 0 0 0 0 0 0 0
          0 0 0 0 0 0 0 0 0 0 0 0
          0 0 1.74207e-09 0.199676 0.999919 0 0 0 0 0 0 0
          0 0 0 0 0 0 0 0 0 0 0 0
          0 0 0 0 2.7099e-06 0.0638387 0 0 0 0 0 0
          0 0 0 0 0 0 0 0 0 0 0 0
          0 0 0 0 0 0 0 0 0 0 0 0
          0 0 0 0 0 0 0 0 0 0 0 0
          0 0 0 0 0 0 0 0 0 0 0 0
          0 0 0 0 0 0 0 0 0 0 0 0
          0 0 0 0 0 0 0 0 0 0 0 0
          0 0 0 0 0 0 0 0 0 0 0 0
          0 0 0 0 0 0 0 0 0 0 0 0
          0 0 0 0 0 0 0 0 0 0 0 0
          0 0 0 0 0 0 0 0 0 0 0 0
          0 0 0 0 0 0 0 0 0 0 0 0
          0 0 0 0 0 0 0 0 0 0 0 0
          0 0 0 0 0 0 0 0 0 0 0 0
          0 0 0 0 0 0 0 0 0 0 0 0
          0 0 0 0 0 0 0 0 0 0 0 0
          0 0 0 0 0 0 0 0 0 0 0 0
          0 0 0 0 0 0 0 0 0 0 0 0
          0 0 0 0 0 0 0 0 0 0 0 0
          0 0 0 0 0 0 0 0 0 0 0 0
          0 0 0 0 0 0 0 0 0 0 0 0
          0 0 0 0 0 0 0 0 0 0 0 0
          0 0 0 0 0 0 0 0 0 0 0 0
          0 0 0 0 0
        </DataArray>
        <DataArray type="Float32" Name="relativePerm_g" NumberOfComponents="1" format="ascii">
          1 1 1 1 1 1 1 1 1 1 1 1
          1 1 1 1 1 1 1 1 1 1 1 1
          1 1 1 1 1 1 1 1 1 1 1 1
          1 1 1 1 1 1 1 1 0.999965 0.999972 0.581254 0.642532
          2.11522e-05 8.60489e-06 1 1 1 1 1 1 1 1 1 1
          1 1 1 1 1 1 1 1 1 1 1 1
          0.999984 0.64277 4.64659e-06 1 1 1 1 1 1 1 1 1
          1 1 1 1 1 1 1 1 1 1 1 1
          1 0.999999 0.662231 0 1 1 1 1 1 1 1 1
          1 1 1 1 1 1 1 1 1 1 1 1
          1 1 1 0.800324 8.11337e-05 1 1 1 1 1 1 1
          1 1 1 1 1 1 1 1 1 1 1 1
          1 1 1 1 0.999997 0.936161 1 1 1 1 1 1
          1 1 1 1 1 1 1 1 1 1 1 1
          1 1 1 1 1 1 1 1 1 1 1 1
          1 1 1 1 1 1 1 1 1 1 1 1
          1 1 1 1 1 1 1 1 1 1 1 1
          1 1 1 1 1 1 1 1 1 1 1 1
          1 1 1 1 1 1 1 1 1 1 1 1
          1 1 1 1 1 1 1 1 1 1 1 1
          1 1 1 1 1 1 1 1 1 1 1 1
          1 1 1 1 1 1 1 1 1 1 1 1
          1 1 1 1 1 1 1 1 1 1 1 1
          1 1 1 1 1 1 1 1 1 1 1 1
          1 1 1 1 1 1 1 1 1 1 1 1
          1 1 1 1 1 1 1 1 1 1 1 1
          1 1 1 1 1 1 1 1 1 1 1 1
          1 1 1 1 1 1 1 1 1 1 1 1
          1 1 1 1 1 1 1 1 1 1 1 1
          1 1 1 1 1 1 1 1 1 1 1 1
          1 1 1 1 1 1 1 1 1 1 1 1
          1 1 1 1 1 1 1 1 1 1 1 1
          1 1 1 1 1 1 1 1 1 1 1 1
          1 1 1 1 1 1 1 1 1 1 1 1
          1 1 1 1 1 1 1 1 1 1 1 1
          1 1 1 1 1
        </DataArray>
        <DataArray type="Float32" Name="porosity" NumberOfComponents="1" format="ascii">
          0.3 0.3 0.3 0.3 0.3 0.3 0.3 0.3 0.3 0.3 0.3 0.3
          0.3 0.3 0.3 0.3 0.3 0.3 0.3 0.3 0.3 0.3 0.3 0.3
          0.3 0.3 0.3 0.3 0.3 0.3 0.3 0.3 0.3 0.3 0.3 0.3
          0.3 0.3 0.3 0.3 0.3 0.3 0.3 0.3 0.3 0.3 0.3 0.3
          0.3 0.3 0.3 0.3 0.3 0.3 0.3 0.3 0.3 0.3 0.3 0.3
          0.3 0.3 0.3 0.3 0.3 0.3 0.3 0.3 0.3 0.3 0.3 0.3
          0.3 0.3 0.3 0.3 0.3 0.3 0.3 0.3 0.3 0.3 0.3 0.3
          0.3 0.3 0.3 0.3 0.3 0.3 0.3 0.3 0.3 0.3 0.3 0.3
          0.3 0.3 0.3 0.3 0.3 0.3 0.3 0.3 0.3 0.3 0.3 0.3
          0.3 0.3 0.3 0.3 0.3 0.3 0.3 0.3 0.3 0.3 0.3 0.3
          0.3 0.3 0.3 0.3 0.3 0.3 0.3 0.3 0.3 0.3 0.3 0.3
          0.3 0.3 0.3 0.3 0.3 0.3 0.3 0.3 0.3 0.3 0.3 0.3
          0.3 0.3 0.3 0.3 0.3 0.3 0.3 0.3 0.3 0.3 0.3 0.3
          0.3 0.3 0.3 0.3 0.3 0.3 0.3 0.3 0.3 0.3 0.3 0.3
          0.3 0.3 0.3 0.3 0.3 0.3 0.3 0.3 0.3 0.3 0.3 0.3
          0.3 0.3 0.3 0.3 0.3 0.3 0.3 0.3 0.3 0.3 0.3 0.3
          0.3 0.3 0.3 0.3 0.3 0.3 0.3 0.3 0.3 0.3 0.3 0.3
          0.3 0.3 0.3 0.3 0.3 0.3 0.3 0.3 0.3 0.3 0.3 0.3
          0.3 0.3 0.3 0.3 0.3 0.3 0.3 0.3 0.3 0.3 0.3 0.3
          0.3 0.3 0.3 0.3 0.3 0.3 0.3 0.3 0.3 0.3 0.3 0.3
          0.3 0.3 0.3 0.3 0.3 0.3 0.3 0.3 0.3 0.3 0.3 0.3
          0.3 0.3 0.3 0.3 0.3 0.3 0.3 0.3 0.3 0.3 0.3 0.3
          0.3 0.3 0.3 0.3 0.3 0.3 0.3 0.3 0.3 0.3 0.3 0.3
          0.3 0.3 0.3 0.3 0.3 0.3 0.3 0.3 0.3 0.3 0.3 0.3
          0.3 0.3 0.3 0.3 0.3 0.3 0.3 0.3 0.3 0.3 0.3 0.3
          0.3 0.3 0.3 0.3 0.3 0.3 0.3 0.3 0.3 0.3 0.3 0.3
          0.3 0.3 0.3 0.3 0.3 0.3 0.3 0.3 0.3 0.3 0.3 0.3
          0.3 0.3 0.3 0.3 0.3 0.3 0.3 0.3 0.3 0.3 0.3 0.3
          0.3 0.3 0.3 0.3 0.3 0.3 0.3 0.3 0.3 0.3 0.3 0.3
          0.3 0.3 0.3 0.3 0.3 0.3 0.3 0.3 0.3 0.3 0.3 0.3
          0.3 0.3 0.3 0.3 0.3 0.3 0.3 0.3 0.3 0.3 0.3 0.3
          0.3 0.3 0.3 0.3 0.3 0.3 0.3 0.3 0.3 0.3 0.3 0.3
          0.3 0.3 0.3 0.3 0.3 0.3 0.3 0.3 0.3 0.3 0.3 0.3
          0.3 0.3 0.3 0.3 0.3 0.3 0.3 0.3 0.3 0.3 0.3 0.3
          0.3 0.3 0.3 0.3 0.3 0.3 0.3 0.3 0.3 0.3 0.3 0.3
          0.3 0.3 0.3 0.3 0.3
        </DataArray>
        <DataArray type="Float32" Name="moleFrac_l^H2O" NumberOfComponents="1" format="ascii">
          0.315516 0.315635 0.315499 0.31557 0.315692 0.315618 0.315723 0.31564 0.315499 0.315491 0.315488 0.315483
          0.315488 0.315483 0.315489 0.315483 0.315562 0.315554 0.318303 0.318195 0.318453 0.318349 0.318769 0.318664
          0.319256 0.319146 0.319922 0.319806 0.320781 0.320657 0.321846 0.321711 0.32313 0.322982 0.324666 0.324498
          0.326766 0.326545 0.332748 0.332196 0.367642 0.365195 0.544609 0.537586 0.999988 0.999988 0.999988 0.999988
          0.999979 0.999979 0.315492 0.315535 0.315566 0.315582 0.315488 0.315483 0.315483 0.315483 0.315548 0.318065
          0.318217 0.318524 0.318993 0.319636 0.320462 0.321486 0.322719 0.324182 0.326091 0.330879 0.358399 0.512352
          0.999988 0.999988 0.999979 0.315488 0.315513 0.315532 0.315541 0.315486 0.315483 0.315483 0.315483 0.315543
          0.317913 0.318059 0.318353 0.318802 0.319415 0.320204 0.321179 0.322351 0.323734 0.325456 0.329107 0.349087
          0.472134 0.999988 0.999988 0.999979 0.315486 0.315497 0.315506 0.315512 0.315484 0.315483 0.315483 0.315483
          0.315537 0.317742 0.317879 0.318156 0.318577 0.319152 0.319891 0.320802 0.321895 0.323178 0.324714 0.327431
          0.341809 0.44901 0.999988 0.999988 0.999981 0.315479 0.315481 0.315485 0.315488 0.315483 0.315483 0.315483
          0.315483 0.315532 0.317555 0.317682 0.317938 0.318326 0.318855 0.319533 0.320368 0.321367 0.322534 0.323884
          0.325613 0.330391 0.365055 0.589931 0.999988 0.999989 0.315462 0.315463 0.315465 0.315466 0.315483 0.315483
          0.315483 0.315483 0.315526 0.317357 0.317473 0.317704 0.318056 0.318535 0.319145 0.319895 0.320789 0.321828
          0.323016 0.324379 0.32632 0.333553 0.381735 0.58723 0.40792 0.315442 0.315442 0.315443 0.315444 0.315482
          0.315483 0.315483 0.315483 0.31552 0.317152 0.317256 0.317463 0.317776 0.318201 0.318741 0.319401 0.320183
          0.321086 0.322107 0.323238 0.324499 0.326302 0.332422 0.357279 0.335001 0.315418 0.315419 0.315419 0.31542
          0.315481 0.315483 0.315483 0.315483 0.315515 0.316946 0.317038 0.31722 0.317494 0.317865 0.318334 0.318904
          0.319575 0.320341 0.321193 0.322113 0.323064 0.324 0.325076 0.327402 0.325933 0.315391 0.315392 0.315392
          0.315392 0.31548 0.315483 0.315483 0.315483 0.315509 0.316743 0.316823 0.316981 0.317218 0.317537 0.317939
          0.318423 0.318987 0.319624 0.32032 0.321052 0.32178 0.322446 0.322992 0.323431 0.323462 0.315361 0.315361
          0.315361 0.315362 0.315479 0.315483 0.315483 0.315483 0.315504 0.316546 0.316615 0.316751 0.316954 0.317226
          0.317566 0.317972 0.31844 0.318962 0.319522 0.3201 0.32066 0.321161 0.321557 0.321814 0.321897 0.315325
          0.315325 0.315326 0.315326 0.315478 0.315483 0.315483 0.315483 0.315499 0.316357 0.316418 0.316535 0.316709
          0.316939 0.317225 0.317563 0.317949 0.318373 0.318822 0.319277 0.319711 0.320093 0.320394 0.320585 0.320651
          0.315284 0.315285 0.315286 0.315286 0.315476 0.315483 0.315483 0.315483 0.315494 0.316179 0.316232 0.316335
          0.316485 0.316682 0.316922 0.317205 0.317523 0.317869 0.318231 0.318592 0.318932 0.319228 0.319459 0.319606
          0.319657 0.315238 0.315239 0.31524 0.315241 0.315474 0.315482 0.315483 0.315483 0.315489 0.316009 0.316059
          0.316153 0.316287 0.316458 0.316664 0.316903 0.31717 0.317456 0.317753 0.318045 0.318317 0.318552 0.318735
          0.31885 0.318889 0.315183 0.315186 0.315193 0.315191 0.315467 0.315477 0.315478 0.315479 0.315483 0.315841
          0.315896 0.315992 0.316117 0.31627 0.316453 0.316661 0.316891 0.317136 0.317387 0.317632 0.317859 0.318054
          0.318204 0.318298 0.31833 0.315118 0.315122 0.315138 0.31518 0.315219 0.315288 0.315359 0.31544 0.315545
          0.315641 0.315752 0.315856 0.315978 0.316122 0.31629 0.316481 0.316689 0.31691 0.317134 0.317352 0.317552
          0.317723 0.317855 0.317937 0.317965 0.315038 0.315044 0.315063 0.315097 0.315143 0.315202 0.315272 0.315353
          0.315444 0.315542 0.315644 0.315752 0.315873 0.316014 0.316178 0.316362 0.316563 0.316776 0.316991 0.3172
          0.317392 0.317555 0.317681 0.317759 0.317786
        </DataArray>
        <DataArray type="Float32" Name="moleFrac_l^N2" NumberOfComponents="1" format="ascii">
          1.14733e-05 1.14777e-05 1.14727e-05 1.14753e-05 1.14797e-05 1.1477e-05 1.14808e-05 1.14778e-05 1.14727e-05 1.14724e-05 1.14723e-05 1.14721e-05
          1.14723e-05 1.14721e-05 1.14723e-05 1.14721e-05 1.1475e-05 1.14747e-05 1.15747e-05 1.15707e-05 1.15801e-05 1.15764e-05 1.15916e-05 1.15878e-05
          1.16093e-05 1.16053e-05 1.16335e-05 1.16293e-05 1.16648e-05 1.16603e-05 1.17035e-05 1.16986e-05 1.17502e-05 1.17448e-05 1.18052e-05 1.17992e-05
          1.1869e-05 1.18621e-05 1.19409e-05 1.19329e-05 1.20133e-05 1.20038e-05 1.20478e-05 1.2036e-05 1.19992e-05 1.19816e-05 1.22376e-05 1.22226e-05
          2.14624e-05 2.10326e-05 1.14725e-05 1.1474e-05 1.14752e-05 1.14757e-05 1.14723e-05 1.14721e-05 1.14721e-05 1.14721e-05 1.14745e-05 1.1566e-05
          1.15715e-05 1.15827e-05 1.15998e-05 1.16231e-05 1.16532e-05 1.16904e-05 1.17352e-05 1.17879e-05 1.18486e-05 1.19164e-05 1.19838e-05 1.20117e-05
          1.19253e-05 1.21145e-05 2.09952e-05 1.14723e-05 1.14732e-05 1.14739e-05 1.14742e-05 1.14722e-05 1.14721e-05 1.14721e-05 1.14721e-05 1.14743e-05
          1.15605e-05 1.15658e-05 1.15765e-05 1.15928e-05 1.16151e-05 1.16438e-05 1.16793e-05 1.17219e-05 1.17719e-05 1.18293e-05 1.18933e-05 1.19575e-05
          1.19857e-05 1.18511e-05 1.19017e-05 2.06544e-05 1.14722e-05 1.14726e-05 1.1473e-05 1.14732e-05 1.14722e-05 1.14721e-05 1.14721e-05 1.14721e-05
          1.14741e-05 1.15543e-05 1.15593e-05 1.15693e-05 1.15846e-05 1.16056e-05 1.16324e-05 1.16655e-05 1.17053e-05 1.17518e-05 1.18052e-05 1.1865e-05
          1.19269e-05 1.19592e-05 1.18213e-05 1.16832e-05 1.91863e-05 1.1472e-05 1.1472e-05 1.14722e-05 1.14723e-05 1.14721e-05 1.14721e-05 1.14721e-05
          1.14721e-05 1.14739e-05 1.15475e-05 1.15521e-05 1.15614e-05 1.15755e-05 1.15948e-05 1.16194e-05 1.16498e-05 1.16861e-05 1.17285e-05 1.17772e-05
          1.18321e-05 1.18931e-05 1.19535e-05 1.19748e-05 1.22055e-05 1.12556e-05 1.14714e-05 1.14714e-05 1.14715e-05 1.14715e-05 1.14721e-05 1.14721e-05
          1.14721e-05 1.14721e-05 1.14737e-05 1.15403e-05 1.15445e-05 1.15529e-05 1.15657e-05 1.15831e-05 1.16053e-05 1.16326e-05 1.16651e-05 1.17029e-05
          1.1746e-05 1.17946e-05 1.1849e-05 1.19102e-05 1.19724e-05 1.19066e-05 1.19317e-05 1.14706e-05 1.14706e-05 1.14707e-05 1.14707e-05 1.14721e-05
          1.14721e-05 1.14721e-05 1.14721e-05 1.14735e-05 1.15328e-05 1.15366e-05 1.15441e-05 1.15555e-05 1.1571e-05 1.15906e-05 1.16146e-05 1.1643e-05
          1.16759e-05 1.1713e-05 1.1754e-05 1.17985e-05 1.18447e-05 1.18813e-05 1.18892e-05 1.18989e-05 1.14698e-05 1.14698e-05 1.14698e-05 1.14698e-05
          1.14721e-05 1.14721e-05 1.14721e-05 1.14721e-05 1.14733e-05 1.15253e-05 1.15287e-05 1.15353e-05 1.15453e-05 1.15587e-05 1.15758e-05 1.15965e-05