<?xml version="1.0"?>
<VTKFile type="UnstructuredGrid" version="0.1" byte_order="LittleEndian">
  <UnstructuredGrid>
    <Piece NumberOfCells="384" NumberOfPoints="425">
      <PointData Scalars="pressure_l">
        <DataArray type="Float32" Name="pressure_l" NumberOfComponents="1" format="ascii">
          100011 100049 100006 100028 100067 100043 100077 100050 100005 100003 100002 100000
          100002 100000 100002 100000 100018 100015 100591 100558 100621 100590 100687 100656
          100790 100758 100935 100901 101125 101089 101367 101329 101667 101625 102030 101984
          102458 102407 102950 102895 103501 103439 104099 104023 104722 104650 104731 106010
          176667 162619 100004 100017 100027 100032 100002 100000 100000 100000 100014 100523
          100554 100618 100717 100855 101037 101269 101555 101902 102312 102786 103316 103876
          104376 104985 160666 100002 100010 100016 100019 100001 100000 100000 100000 100012
          100484 100514 100575 100669 100800 100972 101190 101460 101787 102175 102627 103142
          103709 104232 103144 156161 100001 100005 100008 100009 100001 100000 100000 100000
          100011 100442 100470 100527 100614 100735 100894 101096 101344 101644 102000 102418
          102907 103492 104315 107115 102671 99998.9 99999.6 100001 100002 100000 100000 100000
          100000 100010 100399 100424 100476 100555 100665 100808 100989 101211 101479 101795
          102165 102598 103119 103803 104170 104106 99993.6 99993.8 99994.3 99994.7 100000 100000
          100000 100000 100008 100353 100376 100422 100493 100590 100717 100875 101069 101300
          101571 101882 102235 102624 102995 103235 103305 99987 99987.1 99987.3 99987.6 99999.7
          100000 100000 100000 100007 100307 100327 100368 100429 100514 100623 100759 100924
          101118 101341 101592 101863 102136 102376 102537 102593 99979.4 99979.5 99979.6 99979.8
          99999.5 100000 100000 100000 100006 100261 100279 100314 100366 100439 100531 100645
          100782 100941 101120 101316 101518 101713 101877 101986 102025 99970.7 99970.7 99970.8
          99971 99999.2 100000 100000 100000 100005 100217 100232 100261 100306 100366 100443
          100538 100649 100776 100917 101067 101217 101357 101472 101548 101575 99960.6 99960.7
          99960.8 99961 99998.8 100000 100000 100000 100003 100173 100186 100211 100248 100298
          100362 100438 100528 100628 100738 100852 100964 101065 101147 101200 101219 99949.1
          99949.1 99949.2 99949.5 99998.4 100000 100000 100000 100002 100132 100142 100163 100194
          100236 100287 100349 100421 100500 100585 100671 100754 100829 100888 100926 100939
          99935.8 99935.8 99936 99936.2 99997.9 100000 100000 100000 100001 100092 100101 100119
          100145 100179 100221 100272 100329 100391 100457 100523 100586 100642 100685 100713
          100723 99920.4 99920.6 99920.8 99920.9 99997.2 99999.9 100000 100000 99999.8 100053 100061
          100077 100100 100129 100164 100205 100252 100302 100354 100406 100455 100497 100530
          100551 100558 99902.6 99903.2 99904.7 99903 99994.7 99997.7 99998 99998.2 99997.4 100013
          100024 100039 100060 100085 100115 100150 100189 100231 100274 100317 100356 100390
          100416 100432 100438 99881.5 99882.6 99886.3 99897.6 99903 99917.4 99930.1 99942.9 99957.6
          99975 99989.3 100005 100024 100048 100075 100107 100141 100178 100216 100253 100287
          100316 100338 100352 100357 99856.2 99857.5 99862.3 99869.8 99878.9 99890.1 99902.5 99915.4
          99929.4 99944.3 99959.3 99975.3 99994.2 100017 100043 100074 100107 100142 100178 100213
          100245 100273 100294 100307 100312
        </DataArray>
        <DataArray type="Float32" Name="pressure_g" NumberOfComponents="1" format="ascii">
          100011 100049 100006 100028 100067 100043 100077 100050 100005 100003 100002 100000
          100002 100000 100002 100000 100018 100015 100591 100558 100621 100590 100687 100656
          100790 100758 100935 100901 101125 101089 101367 101329 101667 101625 102030 101984
          102458 102407 102950 102895 103501 103439 104099 104023 104722 104650 104731 106010
          176667 162619 100004 100017 100027 100032 100002 100000 100000 100000 100014 100523
          100554 100618 100717 100855 101037 101269 101555 101902 102312 102786 103316 103876
          104376 104985 160666 100002 100010 100016 100019 100001 100000 100000 100000 100012
          100484 100514 100575 100669 100800 100972 101190 101460 101787 102175 102627 103142
          103709 104232 103144 156161 100001 100005 100008 100009 100001 100000 100000 100000
          100011 100442 100470 100527 100614 100735 100894 101096 101344 101644 102000 102418
          102907 103492 104315 107115 102671 99998.9 99999.6 100001 100002 100000 100000 100000
          100000 100010 100399 100424 100476 100555 100665 100808 100989 101211 101479 101795
          102165 102598 103119 103803 104170 104106 99993.6 99993.8 99994.3 99994.7 100000 100000
          100000 100000 100008 100353 100376 100422 100493 100590 100717 100875 101069 101300
          101571 101882 102235 102624 102995 103235 103305 99987 99987.1 99987.3 99987.6 99999.7
          100000 100000 100000 100007 100307 100327 100368 100429 100514 100623 100759 100924
          101118 101341 101592 101863 102136 102376 102537 102593 99979.4 99979.5 99979.6 99979.8
          99999.5 100000 100000 100000 100006 100261 100279 100314 100366 100439 100531 100645
          100782 100941 101120 101316 101518 101713 101877 101986 102025 99970.7 99970.7 99970.8
          99971 99999.2 100000 100000 100000 100005 100217 100232 100261 100306 100366 100443
          100538 100649 100776 100917 101067 101217 101357 101472 101548 101575 99960.6 99960.7
          99960.8 99961 99998.8 100000 100000 100000 100003 100173 100186 100211 100248 100298
          100362 100438 100528 100628 100738 100852 100964 101065 101147 101200 101219 99949.1
          99949.1 99949.2 99949.5 99998.4 100000 100000 100000 100002 100132 100142 100163 100194
          100236 100287 100349 100421 100500 100585 100671 100754 100829 100888 100926 100939
          99935.8 99935.8 99936 99936.2 99997.9 100000 100000 100000 100001 100092 100101 100119
          100145 100179 100221 100272 100329 100391 100457 100523 100586 100642 100685 100713
          100723 99920.4 99920.6 99920.8 99920.9 99997.2 99999.9 100000 100000 99999.8 100053 100061
          100077 100100 100129 100164 100205 100252 100302 100354 100406 100455 100497 100530
          100551 100558 99902.6 99903.2 99904.7 99903 99994.7 99997.7 99998 99998.2 99997.4 100013
          100024 100039 100060 100085 100115 100150 100189 100231 100274 100317 100356 100390
          100416 100432 100438 99881.5 99882.6 99886.3 99897.6 99903 99917.4 99930.1 99942.9 99957.6
          99975 99989.3 100005 100024 100048 100075 100107 100141 100178 100216 100253 100287
          100316 100338 100352 100357 99856.2 99857.5 99862.3 99869.8 99878.9 99890.1 99902.5 99915.4
          99929.4 99944.3 99959.3 99975.3 99994.2 100017 100043 100074 100107 100142 100178 100213
          100245 100273 100294 100307 100312
        </DataArray>
        <DataArray type="Float32" Name="density_l" NumberOfComponents="1" format="ascii">
          996.375 996.375 996.375 996.375 996.375 996.375 996.375 996.375 996.375 996.375 996.375 996.375
          996.375 996.375 996.375 996.375 996.375 996.375 996.375 996.375 996.375 996.375 996.376 996.376
          996.376 996.376 996.376 996.376 996.376 996.376 996.376 996.376 996.376 996.376 996.376 996.376
          996.376 996.376 996.377 996.376 996.376 996.376 996.371 996.369 996.359 996.359 996.359 996.359
          996.396 996.389 996.375 996.375 996.375 996.375 996.375 996.375 996.375 996.375 996.375 996.375
          996.375 996.375 996.376 996.376 996.376 996.376 996.376 996.376 996.376 996.376 996.376 996.37
          996.358 996.359 996.388 996.375 996.375 996.375 996.375 996.375 996.375 996.375 996.375 996.375
          996.375 996.375 996.375 996.376 996.376 996.376 996.376 996.376 996.376 996.376 996.376 996.376
          996.372 996.362 996.358 996.385 996.375 996.375 996.375 996.375 996.375 996.375 996.375 996.375
          996.375 996.375 996.375 996.375 996.375 996.376 996.376 996.376 996.376 996.376 996.376 996.376
          996.376 996.374 996.365 996.36 996.358 996.375 996.375 996.375 996.375 996.375 996.375 996.375
          996.375 996.375 996.375 996.375 996.375 996.375 996.376 996.376 996.376 996.376 996.376 996.376
          996.376 996.376 996.376 996.373 996.364 996.367 996.375 996.375 996.375 996.375 996.375 996.375
          996.375 996.375 996.375 996.375 996.375 996.375 996.375 996.375 996.376 996.376 996.376 996.376
          996.376 996.376 996.376 996.376 996.376 996.374 996.374 996.375 996.375 996.375 996.375 996.375
          996.375 996.375 996.375 996.375 996.375 996.375 996.375 996.375 996.375 996.375 996.376 996.376
          996.376 996.376 996.376 996.376 996.376 996.376 996.376 996.376 996.375 996.375 996.375 996.375
          996.375 996.375 996.375 996.375 996.375 996.375 996.375 996.375 996.375 996.375 996.375 996.376
          996.376 996.376 996.376 996.376 996.376 996.376 996.376 996.376 996.376 996.375 996.375 996.375
          996.375 996.375 996.375 996.375 996.375 996.375 996.375 996.375 996.375 996.375 996.375 996.375
          996.375 996.376 996.376 996.376 996.376 996.376 996.376 996.376 996.376 996.376 996.375 996.375
          996.375 996.375 996.375 996.375 996.375 996.375 996.375 996.375 996.375 996.375 996.375 996.375
          996.375 996.375 996.375 996.376 996.376 996.376 996.376 996.376 996.376 996.376 996.376 996.375
          996.375 996.375 996.375 996.375 996.375 996.375 996.375 996.375 996.375 996.375 996.375 996.375
          996.375 996.375 996.375 996.375 996.375 996.375 996.376 996.376 996.376 996.376 996.376 996.376
          996.375 996.375 996.375 996.375 996.375 996.375 996.375 996.375 996.375 996.375 996.375 996.375
          996.375 996.375 996.375 996.375 996.375 996.375 996.375 996.375 996.375 996.376 996.376 996.376
          996.376 996.375 996.375 996.375 996.375 996.375 996.375 996.375 996.375 996.375 996.375 996.375
          996.375 996.375 996.375 996.375 996.375 996.375 996.375 996.375 996.375 996.375 996.375 996.375
          996.375 996.375 996.375 996.375 996.375 996.375 996.375 996.375 996.375 996.375 996.375 996.375
          996.375 996.375 996.375 996.375 996.375 996.375 996.375 996.375 996.375 996.375 996.375 996.375
          996.375 996.375 996.375 996.375 996.375 996.375 996.375 996.375 996.375 996.375 996.375 996.375
          996.375 996.375 996.375 996.375 996.375 996.375 996.375 996.375 996.375 996.375 996.375 996.375
          996.375 996.375 996.375 996.375 996.375 996.375 996.375 996.375 996.375 996.375 996.375 996.375
          996.375 996.375 996.375 996.375 996.375 996.375 996.375 996.375 996.375 996.375 996.375 996.375
          996.375 996.375 996.375 996.375 996.375
        </DataArray>
        <DataArray type="Float32" Name="density_g" NumberOfComponents="1" format="ascii">
          1.12612 1.12654 1.12606 1.12631 1.12674 1.12648 1.12685 1.12656 1.12605 1.12602 1.12601 1.12599
          1.12601 1.12599 1.12601 1.12599 1.12619 1.12616 1.13265 1.13228 1.13299 1.13264 1.13373 1.13338
          1.13489 1.13453 1.13652 1.13613 1.13866 1.13826 1.14139 1.14095 1.14477 1.14429 1.14885 1.14833
          1.15367 1.1531 1.15921 1.15857 1.1653 1.16454 1.17095 1.16951 1.16746 1.16664 1.16756 1.18201
          1.98046 1.82172 1.12603 1.12618 1.1263 1.12635 1.12601 1.12599 1.12599 1.12599 1.12615 1.13188
          1.13224 1.13295 1.13407 1.13562 1.13767 1.14028 1.14351 1.14741 1.15203 1.15735 1.16318 1.16801
          1.16354 1.17042 1.79965 1.12602 1.1261 1.12617 1.1262 1.126 1.12599 1.12599 1.12599 1.12613
          1.13144 1.13178 1.13247 1.13352 1.135 1.13693 1.13939 1.14244 1.14612 1.15048 1.15556 1.16129
          1.1669 1.16726 1.14962 1.74874 1.12601 1.12604 1.12608 1.1261 1.126 1.12599 1.12599 1.12599
          1.12612 1.13097 1.13129 1.13193 1.13291 1.13427 1.13606 1.13833 1.14113 1.1445 1.14852 1.15322
          1.15869 1.16486 1.17052 1.1945 1.14428 1.12598 1.12599 1.126 1.12601 1.12599 1.12599 1.12599
          1.12599 1.1261 1.13048 1.13077 1.13135 1.13224 1.13348 1.13509 1.13713 1.13963 1.14265 1.14621
          1.15038 1.15524 1.16104 1.16803 1.16869 1.16965 1.12592 1.12592 1.12593 1.12593 1.12599 1.12599
          1.12599 1.12599 1.12609 1.12997 1.13023 1.13074 1.13154 1.13263 1.13406 1.13585 1.13803 1.14064
          1.14368 1.14719 1.15116 1.15554 1.15963 1.16186 1.16275 1.12585 1.12585 1.12585 1.12585 1.12599
          1.12599 1.12599 1.12599 1.12607 1.12945 1.12968 1.13013 1.13083 1.13178 1.13301 1.13454 1.1364
          1.13858 1.1411 1.14392 1.14697 1.15004 1.15274 1.15452 1.15515 1.12576 1.12576 1.12576 1.12576
          1.12599 1.12599 1.12599 1.12599 1.12606 1.12894 1.12913 1.12952 1.13012 1.13093 1.13197 1.13326
          1.1348 1.13659 1.13861 1.14081 1.14309 1.14528 1.14712 1.14836 1.14879 1.12566 1.12566 1.12566
          1.12567 1.12598 1.12599 1.12599 1.12599 1.12604 1.12843 1.1286 1.12893 1.12943 1.13012 1.13098
          1.13204 1.1333 1.13473 1.13632 1.13801 1.1397 1.14128 1.14257 1.14342 1.14372 1.12555 1.12555
          1.12555 1.12555 1.12598 1.12599 1.12599 1.12599 1.12603 1.12794 1.12809 1.12836 1.12878 1.12935
          1.13006 1.13093 1.13193 1.13307 1.1343 1.13558 1.13684 1.13799 1.13891 1.13951 1.13972 1.12542
          1.12542 1.12542 1.12542 1.12597 1.12599 1.12599 1.12599 1.12602 1.12747 1.12759 1.12783 1.12818
          1.12864 1.12923 1.12993 1.13073 1.13162 1.13257 1.13355 1.13449 1.13533 1.13599 1.13642 1.13657
          1.12527 1.12527 1.12527 1.12527 1.12597 1.12599 1.12599 1.12599 1.126 1.12702 1.12713 1.12733
          1.12762 1.12801 1.12849 1.12905 1.12969 1.1304 1.13114 1.13189 1.13259 1.13322 1.13371 1.13402
          1.13413 1.1251 1.1251 1.1251 1.1251 1.12596 1.12599 1.12599 1.12599 1.12599 1.12659 1.12668
          1.12686 1.12712 1.12744 1.12784 1.12831 1.12883 1.12939 1.12998 1.13056 1.13111 1.13159 1.13196
          1.1322 1.13228 1.1249 1.1249 1.12492 1.1249 1.12593 1.12597 1.12597 1.12597 1.12596 1.12614
          1.12626 1.12643 1.12666 1.12695 1.12729 1.12769 1.12813 1.1286 1.12908 1.12956 1.13 1.13038
          1.13067 1.13086 1.13093 1.12466 1.12467 1.12471 1.12484 1.1249 1.12506 1.12521 1.12535 1.12552
          1.12571 1.12587 1.12605 1.12627 1.12653 1.12684 1.12719 1.12758 1.128 1.12842 1.12884 1.12922
          1.12955 1.1298 1.12996 1.13001 1.12437 1.12439 1.12444 1.12453 1.12463 1.12475 1.12489 1.12504
          1.1252 1.12537 1.12553 1.12571 1.12593 1.12618 1.12648 1.12682 1.1272 1.12759 1.128 1.12839
          1.12876 1.12907 1.1293 1.12945 1.12951
        </DataArray>
        <DataArray type="Float32" Name="saturation_l" NumberOfComponents="1" format="ascii">
          0 0 0 0 0 0 0 0 0 0 0 0
          0 0 0 0 0 0 0 0 0 0 0 0
          0 0 0 0 0 0 0 0 0 0 0 0
          0 0 0 0 0 0 0 0 5.55123e-05 0.000234155 0.22999 0.146521
          0.995248 0.988204 0 0 0 0 0 0 0 0 0 0
          0 0 0 0 0 0 0 0 0 0 0 0
          9.28182e-05 0.130101 0.987218 0 0 0 0 0 0 0 0 0
          0 0 0 0 0 0 0 0 0 0 0 0
          0 0 0.105415 0.988171 0 0 0 0 0 0 0 0
          0 0 0 0 0 0 0 0 0 0 0 0
          0 0 0 0.00432501 0.442861 0 0 0 0 0 0 0
          0 0 0 0 0 0 0 0 0 0 0 0
          0 0 0 0 0 0 0 0 0 0 0 0
          0 0 0 0 0 0 0 0 0 0 0 0
          0 0 0 0 0 0 0 0 0 0 0 0
          0 0 0 0 0 0 0 0 0 0 0 0
          0 0 0 0 0 0 0 0 0 0 0 0
          0 0 0 0 0 0 0 0 0 0 0 0
          0 0 0 0 0 0 0 0 0 0 0 0
          0 0 0 0 0 0 0 0 0 0 0 0
          0 0 0 0 0 0 0 0 0 0 0 0
          0 0 0 0 0 0 0 0 0 0 0 0
          0 0 0 0 0 0 0 0 0 0 0 0
          0 0 0 0 0 0 0 0 0 0 0 0
          0 0 0 0 0 0 0 0 0 0 0 0
          0 0 0 0 0 0 0 0 0 0 0 0
          0 0 0 0 0 0 0 0 0 0 0 0
          0 0 0 0 0 0 0 0 0 0 0 0
          0 0 0 0 0 0 0 0 0 0 0 0
          0 0 0 0 0 0 0 0 0 0 0 0
          0 0 0 0 0 0 0 0 0 0 0 0
          0 0 0 0 0 0 0 0 0 0 0 0
          0 0 0 0 0 0 0 0 0 0 0 0
          0 0 0 0 0 0 0 0 0 0 0 0
          0 0 0 0 0 0 0 0 0 0 0 0
          0 0 0 0 0
        </DataArray>
        <DataArray type="Float32" Name="saturation_g" NumberOfComponents="1" format="ascii">
          1 1 1 1 1 1 1 1 1 1 1 1
          1 1 1 1 1 1 1 1 1 1 1 1
          1 1 1 1 1 1 1 1 1 1 1 1
          1 1 1 1 1 1 1 1 0.999945 0.999766 0.77001 0.853479
          0.00475237 0.0117959 1 1 1 1 1 1 1 1 1 1
          1 1 1 1 1 1 1 1 1 1 1 1
          0.999907 0.869899 0.012782 1 1 1 1 1 1 1 1 1
          1 1 1 1 1 1 1 1 1 1 1 1
          1 1 0.894585 0.011829 1 1 1 1 1 1 1 1
          1 1 1 1 1 1 1 1 1 1 1 1
          1 1 1 0.995675 0.557139 1 1 1 1 1 1 1
          1 1 1 1 1 1 1 1 1 1 1 1
          1 1 1 1 1 1 1 1 1 1 1 1
          1 1 1 1 1 1 1 1 1 1 1 1
          1 1 1 1 1 1 1 1 1 1 1 1
          1 1 1 1 1 1 1 1 1 1 1 1
          1 1 1 1 1 1 1 1 1 1 1 1
          1 1 1 1 1 1 1 1 1 1 1 1
          1 1 1 1 1 1 1 1 1 1 1 1
          1 1 1 1 1 1 1 1 1 1 1 1
          1 1 1 1 1 1 1 1 1 1 1 1
          1 1 1 1 1 1 1 1 1 1 1 1
          1 1 1 1 1 1 1 1 1 1 1 1
          1 1 1 1 1 1 1 1 1 1 1 1
          1 1 1 1 1 1 1 1 1 1 1 1
          1 1 1 1 1 1 1 1 1 1 1 1
          1 1 1 1 1 1 1 1 1 1 1 1
          1 1 1 1 1 1 1 1 1 1 1 1
          1 1 1 1 1 1 1 1 1 1 1 1
          1 1 1 1 1 1 1 1 1 1 1 1
          1 1 1 1 1 1 1 1 1 1 1 1
          1 1 1 1 1 1 1 1 1 1 1 1
          1 1 1 1 1 1 1 1 1 1 1 1
          1 1 1 1 1 1 1 1 1 1 1 1
          1 1 1 1 1 1 1 1 1 1 1 1
          1 1 1 1 1
        </DataArray>
        <DataArray type="Float32" Name="relativePerm_l" NumberOfComponents="1" format="ascii">
          0 0 0 0 0 0 0 0 0 0 0 0
          0 0 0 0 0 0 0 0 0 0 0 0
          0 0 0 0 0 0 0 0 0 0 0 0
          0 0 0 0 0 0 0 0 2.7396e-08 4.87652e-07 0.214989 0.126883
          0.999797 0.998727 0 0 0 0 0 0 0 0 0 0
          0 0 0 0 0 0 0 0 0 0 0 0
          7.65975e-08 0.109551 0.998501 0 0 0 0 0 0 0 0 0
          0 0 0 0 0 0 0 0 0 0 0 0
          0 0 0.0834932 0.998719 0 0 0 0 0 0 0 0
          0 0 0 0 0 0 0 0 0 0 0 0
          0 0 0 0.000168071 0.439687 0 0 0 0 0 0 0
          0 0 0 0 0 0 0 0 0 0 0 0
          0 0 0 0 0 0 0 0 0 0 0 0
          0 0 0 0 0 0 0 0 0 0 0 0
          0 0 0 0 0 0 0 0 0 0 0 0
          0 0 0 0 0 0 0 0 0 0 0 0
          0 0 0 0 0 0 0 0 0 0 0 0
          0 0 0 0 0 0 0 0 0 0 0 0
          0 0 0 0 0 0 0 0 0 0 0 0
          0 0 0 0 0 0 0 0 0 0 0 0
          0 0 0 0 0 0 0 0 0 0 0 0
          0 0 0 0 0 0 0 0 0 0 0 0
          0 0 0 0 0 0 0 0 0 0 0 0
          0 0 0 0 0 0 0 0 0 0 0 0
          0 0 0 0 0 0 0 0 0 0 0 0
          0 0 0 0 0 0 0 0 0 0 0 0
          0 0 0 0 0 0 0 0 0 0 0 0
          0 0 0 0 0 0 0 0 0 0 0 0
          0 0 0 0 0 0 0 0 0 0 0 0
          0 0 0 0 0 0 0 0 0 0 0 0
          0 0 0 0 0 0 0 0 0 0 0 0
          0 0 0 0 0 0 0 0 0 0 0 0
          0 0 0 0 0 0 0 0 0 0 0 0
          0 0 0 0 0 0 0 0 0 0 0 0
          0 0 0 0 0 0 0 0 0 0 0 0
          0 0 0 0 0
        </DataArray>
        <DataArray type="Float32" Name="relativePerm_g" NumberOfComponents="1" format="ascii">
          1 1 1 1 1 1 1 1 1 1 1 1
          1 1 1 1 1 1 1 1 1 1 1 1
          1 1 1 1 1 1 1 1 1 1 1 1
          1 1 1 1 1 1 1 1 1 1 0.785011 0.873117
          0.000203141 0.00127331 1 1 1 1 1 1 1 1 1 1
          1 1 1 1 1 1 1 1 1 1 1 1
          1 0.890449 0.00149868 1 1 1 1 1 1 1 1 1
          1 1 1 1 1 1 1 1 1 1 1 1
          1 1 0.916507 0.00128056 1 1 1 1 1 1 1 1
          1 1 1 1 1 1 1 1 1 1 1 1
          1 1 1 0.999832 0.560313 1 1 1 1 1 1 1
          1 1 1 1 1 1 1 1 1 1 1 1
          1 1 1 1 1 1 1 1 1 1 1 1
          1 1 1 1 1 1 1 1 1 1 1 1
          1 1 1 1 1 1 1 1 1 1 1 1
          1 1 1 1 1 1 1 1 1 1 1 1
          1 1 1 1 1 1 1 1 1 1 1 1
          1 1 1 1 1 1 1 1 1 1 1 1
          1 1 1 1 1 1 1 1 1 1 1 1
          1 1 1 1 1 1 1 1 1 1 1 1
          1 1 1 1 1 1 1 1 1 1 1 1
          1 1 1 1 1 1 1 1 1 1 1 1
          1 1 1 1 1 1 1 1 1 1 1 1
          1 1 1 1 1 1 1 1 1 1 1 1
          1 1 1 1 1 1 1 1 1 1 1 1
          1 1 1 1 1 1 1 1 1 1 1 1
          1 1 1 1 1 1 1 1 1 1 1 1
          1 1 1 1 1 1 1 1 1 1 1 1
          1 1 1 1 1 1 1 1 1 1 1 1
          1 1 1 1 1 1 1 1 1 1 1 1
          1 1 1 1 1 1 1 1 1 1 1 1
          1 1 1 1 1 1 1 1 1 1 1 1
          1 1 1 1 1 1 1 1 1 1 1 1
          1 1 1 1 1 1 1 1 1 1 1 1
          1 1 1 1 1 1 1 1 1 1 1 1
          1 1 1 1 1
        </DataArray>
        <DataArray type="Float32" Name="porosity" NumberOfComponents="1" format="ascii">
          0.3 0.3 0.3 0.3 0.3 0.3 0.3 0.3 0.3 0.3 0.3 0.3
          0.3 0.3 0.3 0.3 0.3 0.3 0.3 0.3 0.3 0.3 0.3 0.3
          0.3 0.3 0.3 0.3 0.3 0.3 0.3 0.3 0.3 0.3 0.3 0.3
          0.3 0.3 0.3 0.3 0.3 0.3 0.3 0.3 0.3 0.3 0.3 0.3
          0.3 0.3 0.3 0.3 0.3 0.3 0.3 0.3 0.3 0.3 0.3 0.3
          0.3 0.3 0.3 0.3 0.3 0.3 0.3 0.3 0.3 0.3 0.3 0.3
          0.3 0.3 0.3 0.3 0.3 0.3 0.3 0.3 0.3 0.3 0.3 0.3
          0.3 0.3 0.3 0.3 0.3 0.3 0.3 0.3 0.3 0.3 0.3 0.3
          0.3 0.3 0.3 0.3 0.3 0.3 0.3 0.3 0.3 0.3 0.3 0.3
          0.3 0.3 0.3 0.3 0.3 0.3 0.3 0.3 0.3 0.3 0.3 0.3
          0.3 0.3 0.3 0.3 0.3 0.3 0.3 0.3 0.3 0.3 0.3 0.3
          0.3 0.3 0.3 0.3 0.3 0.3 0.3 0.3 0.3 0.3 0.3 0.3
          0.3 0.3 0.3 0.3 0.3 0.3 0.3 0.3 0.3 0.3 0.3 0.3
          0.3 0.3 0.3 0.3 0.3 0.3 0.3 0.3 0.3 0.3 0.3 0.3
          0.3 0.3 0.3 0.3 0.3 0.3 0.3 0.3 0.3 0.3 0.3 0.3
          0.3 0.3 0.3 0.3 0.3 0.3 0.3 0.3 0.3 0.3 0.3 0.3
          0.3 0.3 0.3 0.3 0.3 0.3 0.3 0.3 0.3 0.3 0.3 0.3
          0.3 0.3 0.3 0.3 0.3 0.3 0.3 0.3 0.3 0.3 0.3 0.3
          0.3 0.3 0.3 0.3 0.3 0.3 0.3 0.3 0.3 0.3 0.3 0.3
          0.3 0.3 0.3 0.3 0.3 0.3 0.3 0.3 0.3 0.3 0.3 0.3
          0.3 0.3 0.3 0.3 0.3 0.3 0.3 0.3 0.3 0.3 0.3 0.3
          0.3 0.3 0.3 0.3 0.3 0.3 0.3 0.3 0.3 0.3 0.3 0.3
          0.3 0.3 0.3 0.3 0.3 0.3 0.3 0.3 0.3 0.3 0.3 0.3
          0.3 0.3 0.3 0.3 0.3 0.3 0.3 0.3 0.3 0.3 0.3 0.3
          0.3 0.3 0.3 0.3 0.3 0.3 0.3 0.3 0.3 0.3 0.3 0.3
          0.3 0.3 0.3 0.3 0.3 0.3 0.3 0.3 0.3 0.3 0.3 0.3
          0.3 0.3 0.3 0.3 0.3 0.3 0.3 0.3 0.3 0.3 0.3 0.3
          0.3 0.3 0.3 0.3 0.3 0.3 0.3 0.3 0.3 0.3 0.3 0.3
          0.3 0.3 0.3 0.3 0.3 0.3 0.3 0.3 0.3 0.3 0.3 0.3
          0.3 0.3 0.3 0.3 0.3 0.3 0.3 0.3 0.3 0.3 0.3 0.3
          0.3 0.3 0.3 0.3 0.3 0.3 0.3 0.3 0.3 0.3 0.3 0.3
          0.3 0.3 0.3 0.3 0.3 0.3 0.3 0.3 0.3 0.3 0.3 0.3
          0.3 0.3 0.3 0.3 0.3 0.3 0.3 0.3 0.3 0.3 0.3 0.3
          0.3 0.3 0.3 0.3 0.3 0.3 0.3 0.3 0.3 0.3 0.3 0.3
          0.3 0.3 0.3 0.3 0.3 0.3 0.3 0.3 0.3 0.3 0.3 0.3
          0.3 0.3 0.3 0.3 0.3
        </DataArray>
        <DataArray type="Float32" Name="moleFrac_l^H2O" NumberOfComponents="1" format="ascii">
          0.25146 0.251555 0.251447 0.251503 0.2516 0.251541 0.251625 0.251558 0.251445 0.251439 0.251436 0.251432
          0.251436 0.251432 0.251437 0.251433 0.251477 0.251471 0.252918 0.252836 0.252994 0.252916 0.253159 0.253081
          0.253419 0.253338 0.253782 0.253697 0.254261 0.25417 0.25487 0.254772 0.255624 0.255518 0.256538 0.256422
          0.257643 0.25753 0.259363 0.259525 0.267025 0.27117 0.33713 0.373418 0.999988 0.999988 0.999988 0.999988
          0.99998 0.999982 0.251441 0.251475 0.2515 0.251512 0.251436 0.251432 0.251432 0.251432 0.251467 0.252747
          0.252826 0.252986 0.253235 0.253583 0.254041 0.254622 0.255343 0.256215 0.257279 0.259097 0.269338 0.363007
          0.999988 0.999988 0.999982 0.251437 0.251457 0.251472 0.25148 0.251435 0.251432 0.251432 0.251432 0.251463
          0.25265 0.252725 0.252878 0.253114 0.253443 0.253875 0.254425 0.255104 0.255926 0.256916 0.25836 0.264292
          0.315238 0.663702 0.999988 0.999982 0.251436 0.251444 0.251451 0.251456 0.251433 0.251432 0.251432 0.251432
          0.25146 0.252545 0.252615 0.252757 0.252976 0.253281 0.253681 0.254187 0.254811 0.255566 0.256467 0.257631
          0.260902 0.289262 0.517778 0.999988 0.999989 0.251429 0.251431 0.251434 0.251436 0.251433 0.251432 0.251432
          0.251432 0.251456 0.252434 0.252498 0.252628 0.252827 0.253103 0.253464 0.253919 0.254478 0.255151 0.255947
          0.256892 0.25828 0.264126 0.310139 0.529523 0.424526 0.251416 0.251416 0.251418 0.251419 0.251432 0.251432
          0.251432 0.251432 0.251453 0.25232 0.252377 0.252493 0.252671 0.252915 0.253234 0.253633 0.25412 0.254702
          0.255382 0.256166 0.257077 0.258463 0.264092 0.294128 0.288679 0.251399 0.2514 0.2514 0.251401 0.251431
          0.251432 0.251432 0.251432 0.25145 0.252204 0.252255 0.252356 0.252511 0.252724 0.252999 0.253341 0.253755
          0.254243 0.254805 0.255435 0.256117 0.256828 0.257742 0.260483 0.260743 0.25138 0.25138 0.251381 0.251381
          0.251431 0.251432 0.251432 0.251432 0.251446 0.252089 0.252133 0.252221 0.252353 0.252535 0.252768 0.253055
          0.253399 0.253798 0.254249 0.25474 0.255249 0.255739 0.256165 0.256563 0.256687 0.251358 0.251358 0.251359
          0.251359 0.25143 0.251432 0.251432 0.251432 0.251443 0.251977 0.252014 0.252088 0.252201 0.252353 0.252547
          0.252784 0.253063 0.253384 0.253738 0.254114 0.254493 0.254845 0.255134 0.255329 0.255397 0.251333 0.251333
          0.251333 0.251334 0.251429 0.251432 0.251432 0.251432 0.25144 0.251868 0.251899 0.251962 0.252055 0.252182
          0.252341 0.252534 0.252759 0.253012 0.253287 0.253574 0.253855 0.25411 0.254316 0.25445 0.254497 0.251304
          0.251304 0.251304 0.251305 0.251428 0.251432 0.251432 0.251432 0.251438 0.251763 0.25179 0.251842 0.25192
          0.252024 0.252155 0.25231 0.25249 0.252689 0.252902 0.253119 0.253329 0.253516 0.253665 0.253761 0.253794
          0.25127 0.251271 0.251271 0.251272 0.251427 0.251432 0.251432 0.251432 0.251435 0.251662 0.251685 0.25173
          0.251796 0.251882 0.251989 0.252115 0.252258 0.252416 0.252581 0.252748 0.252906 0.253045 0.253155 0.253225
          0.253249 0.251232 0.251232 0.251233 0.251233 0.251425 0.251432 0.251432 0.251432 0.251432 0.251565 0.251586
          0.251626 0.251683 0.251756 0.251845 0.251948 0.252065 0.252191 0.252323 0.252453 0.252575 0.252682 0.252765
          0.252817 0.252835 0.251187 0.251189 0.251192 0.251188 0.251419 0.251426 0.251427 0.251427 0.251426 0.251466
          0.251492 0.251531 0.251582 0.251646 0.251722 0.25181 0.251908 0.252014 0.252122 0.252228 0.252327 0.252412
          0.252478 0.252519 0.252533 0.251134 0.251137 0.251146 0.251175 0.251188 0.251224 0.251256 0.251288 0.251326
          0.251369 0.251405 0.251445 0.251493 0.251552 0.251621 0.2517 0.251787 0.25188 0.251975 0.252067 0.252153
          0.252226 0.252282 0.252318 0.25233 0.25107 0.251074 0.251086 0.251105 0.251128 0.251156 0.251187 0.251219
          0.251255 0.251292 0.25133 0.25137 0.251417 0.251474 0.251541 0.251617 0.251701 0.25179 0.25188 0.251968
          0.252049 0.252118 0.252172 0.252205 0.252216
        </DataArray>
        <DataArray type="Float32" Name="moleFrac_l^N2" NumberOfComponents="1" format="ascii">
          1.14734e-05 1.14777e-05 1.14728e-05 1.14754e-05 1.14798e-05 1.14771e-05 1.14809e-05 1.14779e-05 1.14727e-05 1.14724e-05 1.14723e-05 1.14721e-05
          1.14723e-05 1.14721e-05 1.14723e-05 1.14721e-05 1.14742e-05 1.14739e-05 1.15399e-05 1.15362e-05 1.15434e-05 1.15398e-05 1.15509e-05 1.15473e-05
          1.15628e-05 1.15591e-05 1.15793e-05 1.15754e-05 1.16012e-05 1.1597e-05 1.1629e-05 1.16245e-05 1.16634e-05 1.16585e-05 1.1705e-05 1.16997e-05
          1.17541e-05 1.17482e-05 1.18104e-05 1.18038e-05 1.18706e-05 1.18615e-05 1.19076e-05 1.18821e-05 1.16743e-05 1.16659e-05 1.16754e-05 1.18236e-05
          2.00113e-05 1.83834e-05 1.14725e-05 1.14741e-05 1.14752e-05 1.14758e-05 1.14723e-05 1.14721e-05 1.14721e-05 1.14721e-05 1.14737e-05 1.15321e-05
          1.15357e-05 1.1543e-05 1.15544e-05 1.15702e-05 1.15911e-05 1.16177e-05 1.16505e-05 1.16903e-05 1.17373e-05 1.17914e-05 1.18481e-05 1.18698e-05
          1.16342e-05 1.17048e-05 1.81571e-05 1.14723e-05 1.14732e-05 1.14739e-05 1.14743e-05 1.14722e-05 1.14721e-05 1.14721e-05 1.14721e-05 1.14735e-05
          1.15277e-05 1.15311e-05 1.15381e-05 1.15488e-05 1.15638e-05 1.15836e-05 1.16087e-05 1.16396e-05 1.16771e-05 1.17216e-05 1.17733e-05 1.18302e-05
          1.18726e-05 1.17725e-05 1.14914e-05 1.76351e-05 1.14723e-05 1.14726e-05 1.1473e-05 1.14732e-05 1.14722e-05 1.14721e-05 1.14721e-05 1.14721e-05
          1.14734e-05 1.15229e-05 1.15261e-05 1.15326e-05 1.15426e-05 1.15565e-05 1.15747e-05 1.15978e-05 1.16263e-05 1.16607e-05 1.17016e-05 1.17495e-05
          1.18046e-05 1.18594e-05 1.18494e-05 1.19516e-05 1.14367e-05 1.1472e-05 1.14721e-05 1.14722e-05 1.14723e-05 1.14721e-05 1.14721e-05 1.14721e-05
          1.14721e-05 1.14732e-05 1.15178e-05 1.15208e-05 1.15267e-05 1.15358e-05 1.15484e-05 1.15648e-05 1.15856e-05 1.16111e-05 1.16418e-05 1.16781e-05
          1.17205e-05 1.177e-05 1.18277e-05 1.18857e-05 1.18271e-05 1.18682e-05 1.14714e-05 1.14714e-05 1.14715e-05 1.14715e-05 1.14721e-05 1.14721e-05
          1.14721e-05 1.14721e-05 1.14731e-05 1.15126e-05 1.15152e-05 1.15205e-05 1.15286e-05 1.15398e-05 1.15543e-05 1.15725e-05 1.15948e-05 1.16213e-05
          1.16523e-05 1.16881e-05 1.17285e-05 1.1773e-05 1.18133e-05 1.18272e-05 1.18379e-05 1.14706e-05 1.14706e-05 1.14707e-05 1.14707e-05 1.14721e-05
          1.14721e-05 1.14721e-05 1.14721e-05 1.14729e-05 1.15073e-05 1.15097e-05 1.15143e-05 1.15213e-05 1.15311e-05 1.15436e-05 1.15592e-05 1.15781e-05
          1.16004e-05 1.1626e-05 1.16547e-05 1.16858e-05 1.17171e-05 1.17445e-05 1.17619e-05 1.17683e-05 1.14697e-05 1.14698e-05 1.14698e-05 1.14698e-05
          1.1472e-05 1.14721e-05 1.14721e-05 1.14721e-05 1.14728e-05 1.15021e-05 1.15041e-05 1.15081e-05 1.15141e-05 1.15224e-05 1.1533e-05 1.15462e-05