<?xml version="1.0"?>
<VTKFile type="UnstructuredGrid" version="0.1" byte_order="LittleEndian">
  <UnstructuredGrid>
    <Piece NumberOfCells="384" NumberOfPoints="425">
      <PointData Scalars="pressure_l">
        <DataArray type="Float32" Name="pressure_l" NumberOfComponents="1" format="ascii">
          100000 99989.8 99994 99964.3 99970.3 99939.4 99959.9 99925.3 99048.1 99045.2 99004.9 99003.3
          99004.3 99002.7 99004.5 99002.9 99026.9 99024.4 99836.4 99802.6 99880.6 99848.5 99974.6 99941.8
          100120 100086 100320 100284 100581 100542 100907 100865 101305 101259 101780 101728
          102337 102278 102984 102913 103735 103644 104620 104493 105682 105530 107857 107702
          188265 184579 99988.8 99937.3 99900.2 99881.5 99042.7 99003.3 99002.7 99002.9 99022.7 99763.1
          99808.2 99899.3 100039 100232 100483 100796 101177 101630 102159 102766 103447 104198
          105032 106746 184257 99979.6 99895.8 99846.4 99824.4 99039.3 99003.2 99002.7 99002.9 99021
          99717.5 99760.8 99847.9 99981.7 100166 100404 100702 101063 101492 101991 102559 103186
          103836 104375 104865 183424 99934.1 99819.7 99772.4 99751.9 99035.2 99003.1 99002.7 99002.8
          99019.4 99666.6 99707.3 99789.1 99914.5 100087 100309 100587 100923 101320 101782 102307
          102893 103523 104100 102923 168411 99725.1 99708.3 99680.8 99666.3 99030.4 99003.1 99002.7
          99002.8 99017.7 99611.4 99649 99724.4 99839.7 99997.6 100201 100455 100761 101122 101540
          102017 102560 103197 104104 107429 99153.9 99598.2 99592.9 99582.1 99574 99025.4 99003
          99002.7 99002.8 99016 99553.2 99587.3 99655.6 99759.7 99902 100085 100311 100584 100904
          101272 101691 102165 102717 103410 103492 103137 99493.2 99491.2 99486.5 99482.3 99020.8
          99002.9 99002.7 99002.8 99014.3 99493.3 99523.8 99584.6 99677 99802.8 99964 100162 100399
          100676 100990 101342 101725 102127 102461 102607 102620 99401.7 99400.8 99398.5 99396.1
          99016.7 99002.9 99002.7 99002.8 99012.6 99433.1 99459.9 99513.2 99593.9 99703.3 99842.8 100013
          100215 100448 100709 100993 101288 101569 101794 101926 101966 99321 99320.5 99319.2
          99317.5 99013.3 99002.8 99002.7 99002.8 99011 99373.7 99397 99443.1 99512.7 99606.4 99725.2
          99869.2 100038 100230 100442 100666 100890 101095 101258 101361 101396 99249.7 99249.4
          99248.5 99247.3 99010.4 99002.8 99002.7 99002.7 99009.4 99316.3 99336.4 99375.9 99435.2 99514.7
          99614.6 99734.8 99874.1 100030 100199 100374 100545 100698 100819 100897 100923 99187.1
          99186.9 99186.2 99185.1 99008 99002.7 99002.7 99002.7 99007.9 99261.4 99278.8 99312.6 99363.1
          99430.2 99513.8 99613.3 99727.3 99853.5 99987.8 100124 100255 100371 100462 100520 100540
          99132.2 99131.9 99131.3 99130.4 99006 99002.7 99002.7 99002.7 99006.4 99209.6 99224.8 99254.1
          99297.4 99354.4 99424.5 99507.1 99600.6 99702.8 99810 99917.5 100019 100108 100177 100221
          100237 99084.2 99083.9 99083.2 99082.2 99004.2 99002.7 99002.7 99002.7 99004.9 99160.6 99174.4
          99200.9 99239.1 99288.2 99348 99417.5 99495.4 99579.5 99666.6 99752.9 99833.5 99903.4 99957.6
          99992 100004 99042.5 99042.1 99040.9 99039.4 99002.2 99002.2 99002.3 99002.4 99003.4 99113.4
          99127.3 99153.6 99188.7 99232.6 99285.1 99345.4 99412.3 99483.8 99557.2 99629.1 99695.7 99753.1
          99797.3 99825.2 99834.7 99006.7 99006.2 99004.6 99000.3 98999.8 99000.2 99006.1 99018 99038.6
          99056.6 99085.3 99113.2 99147.1 99188 99236.2 99291.1 99351.5 99415.6 99480.9 99544.5 99603.1
          99653.3 99691.8 99716.1 99724.4 98976.5 98976 98974.2 98972 98971.1 98972.9 98978.9 98990.6
          99007.3 99027.8 99052.5 99081.3 99114.8 99154.8 99201.6 99254.6 99312.9 99374.5 99437.2 99498.1
          99554.1 99601.9 99638.6 99661.6 99669.5
        </DataArray>
        <DataArray type="Float32" Name="pressure_g" NumberOfComponents="1" format="ascii">
          100000 99989.8 99994 99964.3 99970.3 99939.4 99959.9 99925.3 99048.1 99045.2 99004.9 99003.3
          99004.3 99002.7 99004.5 99002.9 99026.9 99024.4 99836.4 99802.6 99880.6 99848.5 99974.6 99941.8
          100120 100086 100320 100284 100581 100542 100907 100865 101305 101259 101780 101728
          102337 102278 102984 102913 103735 103644 104620 104493 105682 105530 107857 107702
          188265 184579 99988.8 99937.3 99900.2 99881.5 99042.7 99003.3 99002.7 99002.9 99022.7 99763.1
          99808.2 99899.3 100039 100232 100483 100796 101177 101630 102159 102766 103447 104198
          105032 106746 184257 99979.6 99895.8 99846.4 99824.4 99039.3 99003.2 99002.7 99002.9 99021
          99717.5 99760.8 99847.9 99981.7 100166 100404 100702 101063 101492 101991 102559 103186
          103836 104375 104865 183424 99934.1 99819.7 99772.4 99751.9 99035.2 99003.1 99002.7 99002.8
          99019.4 99666.6 99707.3 99789.1 99914.5 100087 100309 100587 100923 101320 101782 102307
          102893 103523 104100 102923 168411 99725.1 99708.3 99680.8 99666.3 99030.4 99003.1 99002.7
          99002.8 99017.7 99611.4 99649 99724.4 99839.7 99997.6 100201 100455 100761 101122 101540
          102017 102560 103197 104104 107429 99153.9 99598.2 99592.9 99582.1 99574 99025.4 99003
          99002.7 99002.8 99016 99553.2 99587.3 99655.6 99759.7 99902 100085 100311 100584 100904
          101272 101691 102165 102717 103410 103492 103137 99493.2 99491.2 99486.5 99482.3 99020.8
          99002.9 99002.7 99002.8 99014.3 99493.3 99523.8 99584.6 99677 99802.8 99964 100162 100399
          100676 100990 101342 101725 102127 102461 102607 102620 99401.7 99400.8 99398.5 99396.1
          99016.7 99002.9 99002.7 99002.8 99012.6 99433.1 99459.9 99513.2 99593.9 99703.3 99842.8 100013
          100215 100448 100709 100993 101288 101569 101794 101926 101966 99321 99320.5 99319.2
          99317.5 99013.3 99002.8 99002.7 99002.8 99011 99373.7 99397 99443.1 99512.7 99606.4 99725.2
          99869.2 100038 100230 100442 100666 100890 101095 101258 101361 101396 99249.7 99249.4
          99248.5 99247.3 99010.4 99002.8 99002.7 99002.7 99009.4 99316.3 99336.4 99375.9 99435.2 99514.7
          99614.6 99734.8 99874.1 100030 100199 100374 100545 100698 100819 100897 100923 99187.1
          99186.9 99186.2 99185.1 99008 99002.7 99002.7 99002.7 99007.9 99261.4 99278.8 99312.6 99363.1
          99430.2 99513.8 99613.3 99727.3 99853.5 99987.8 100124 100255 100371 100462 100520 100540
          99132.2 99131.9 99131.3 99130.4 99006 99002.7 99002.7 99002.7 99006.4 99209.6 99224.8 99254.1
          99297.4 99354.4 99424.5 99507.1 99600.6 99702.8 99810 99917.5 100019 100108 100177 100221
          100237 99084.2 99083.9 99083.2 99082.2 99004.2 99002.7 99002.7 99002.7 99004.9 99160.6 99174.4
          99200.9 99239.1 99288.2 99348 99417.5 99495.4 99579.5 99666.6 99752.9 99833.5 99903.4 99957.6
          99992 100004 99042.5 99042.1 99040.9 99039.4 99002.2 99002.2 99002.3 99002.4 99003.4 99113.4
          99127.3 99153.6 99188.7 99232.6 99285.1 99345.4 99412.3 99483.8 99557.2 99629.1 99695.7 99753.1
          99797.3 99825.2 99834.7 99006.7 99006.2 99004.6 99000.3 98999.8 99000.2 99006.1 99018 99038.6
          99056.6 99085.3 99113.2 99147.1 99188 99236.2 99291.1 99351.5 99415.6 99480.9 99544.5 99603.1
          99653.3 99691.8 99716.1 99724.4 98976.5 98976 98974.2 98972 98971.1 98972.9 98978.9 98990.6
          99007.3 99027.8 99052.5 99081.3 99114.8 99154.8 99201.6 99254.6 99312.9 99374.5 99437.2 99498.1
          99554.1 99601.9 99638.6 99661.6 99669.5
        </DataArray>
        <DataArray type="Float32" Name="density_l" NumberOfComponents="1" format="ascii">
          997.048 997.048 997.048 997.048 997.048 997.048 997.048 997.048 997.047 997.047 997.047 997.047
          997.047 997.047 997.047 997.047 997.047 997.047 997.048 997.048 997.048 997.048 997.048 997.048
          997.048 997.048 997.048 997.048 997.048 997.048 997.048 997.048 997.048 997.048 997.048 997.048
          997.049 997.049 997.049 997.049 997.049 997.049 997.05 997.05 997.05 997.05 997.051 997.051
          997.087 997.086 997.048 997.048 997.048 997.048 997.047 997.047 997.047 997.047 997.047 997.048
          997.048 997.048 997.048 997.048 997.048 997.048 997.048 997.048 997.049 997.049 997.049 997.05
          997.05 997.051 997.086 997.048 997.048 997.048 997.048 997.047 997.047 997.047 997.047 997.047
          997.048 997.048 997.048 997.048 997.048 997.048 997.048 997.048 997.048 997.049 997.049 997.049
          997.049 997.05 997.05 997.085 997.048 997.048 997.048 997.048 997.047 997.047 997.047 997.047
          997.047 997.048 997.048 997.048 997.048 997.048 997.048 997.048 997.048 997.048 997.048 997.049
          997.049 997.049 997.049 997.049 997.078 997.048 997.048 997.048 997.048 997.047 997.047 997.047
          997.047 997.047 997.047 997.047 997.048 997.048 997.048 997.048 997.048 997.048 997.048 997.048
          997.049 997.049 997.049 997.049 997.051 997.047 997.047 997.047 997.047 997.047 997.047 997.047
          997.047 997.047 997.047 997.047 997.047 997.048 997.048 997.048 997.048 997.048 997.048 997.048
          997.048 997.048 997.049 997.049 997.049 997.049 997.049 997.047 997.047 997.047 997.047 997.047
          997.047 997.047 997.047 997.047 997.047 997.047 997.047 997.048 997.048 997.048 997.048 997.048
          997.048 997.048 997.048 997.048 997.049 997.049 997.049 997.049 997.047 997.047 997.047 997.047
          997.047 997.047 997.047 997.047 997.047 997.047 997.047 997.047 997.047 997.048 997.048 997.048
          997.048 997.048 997.048 997.048 997.048 997.048 997.048 997.049 997.049 997.047 997.047 997.047
          997.047 997.047 997.047 997.047 997.047 997.047 997.047 997.047 997.047 997.047 997.047 997.048
          997.048 997.048 997.048 997.048 997.048 997.048 997.048 997.048 997.048 997.048 997.047 997.047
          997.047 997.047 997.047 997.047 997.047 997.047 997.047 997.047 997.047 997.047 997.047 997.047
          997.047 997.048 997.048 997.048 997.048 997.048 997.048 997.048 997.048 997.048 997.048 997.047
          997.047 997.047 997.047 997.047 997.047 997.047 997.047 997.047 997.047 997.047 997.047 997.047
          997.047 997.047 997.047 997.048 997.048 997.048 997.048 997.048 997.048 997.048 997.048 997.048
          997.047 997.047 997.047 997.047 997.047 997.047 997.047 997.047 997.047 997.047 997.047 997.047
          997.047 997.047 997.047 997.047 997.047 997.048 997.048 997.048 997.048 997.048 997.048 997.048
          997.048 997.047 997.047 997.047 997.047 997.047 997.047 997.047 997.047 997.047 997.047 997.047
          997.047 997.047 997.047 997.047 997.047 997.047 997.047 997.048 997.048 997.048 997.048 997.048
          997.048 997.048 997.047 997.047 997.047 997.047 997.047 997.047 997.047 997.047 997.047 997.047
          997.047 997.047 997.047 997.047 997.047 997.047 997.047 997.047 997.047 997.047 997.048 997.048
          997.048 997.048 997.048 997.047 997.047 997.047 997.047 997.047 997.047 997.047 997.047 997.047
          997.047 997.047 997.047 997.047 997.047 997.047 997.047 997.047 997.047 997.047 997.047 997.047
          997.047 997.048 997.048 997.048 997.047 997.047 997.047 997.047 997.047 997.047 997.047 997.047
          997.047 997.047 997.047 997.047 997.047 997.047 997.047 997.047 997.047 997.047 997.047 997.047
          997.047 997.047 997.047 997.048 997.048
        </DataArray>
        <DataArray type="Float32" Name="density_g" NumberOfComponents="1" format="ascii">
          1.13002 1.1299 1.12995 1.12961 1.12968 1.12933 1.12956 1.12917 1.11926 1.11922 1.11877 1.11875
          1.11876 1.11874 1.11876 1.11875 1.11902 1.11899 1.12817 1.12778 1.12867 1.1283 1.12973 1.12936
          1.13137 1.13098 1.13363 1.13323 1.13658 1.13614 1.14027 1.13979 1.14476 1.14424 1.15013 1.14954
          1.15642 1.15575 1.16374 1.16294 1.17222 1.1712 1.18222 1.18079 1.19423 1.19251 1.2188 1.21705
          2.12745 2.0858 1.12989 1.12931 1.12889 1.12867 1.1192 1.11875 1.11874 1.11875 1.11897 1.12734
          1.12785 1.12888 1.13046 1.13264 1.13547 1.13901 1.14332 1.14844 1.15442 1.16127 1.16897 1.17745
          1.18688 1.20625 2.08216 1.12978 1.12884 1.12828 1.12803 1.11916 1.11875 1.11874 1.11875 1.11895
          1.12682 1.12731 1.1283 1.12981 1.13189 1.13458 1.13795 1.14203 1.14688 1.15251 1.15893 1.16601
          1.17337 1.17946 1.18499 2.07274 1.12927 1.12798 1.12744 1.12721 1.11911 1.11875 1.11874 1.11875
          1.11893 1.12625 1.12671 1.12763 1.12905 1.13099 1.13351 1.13664 1.14044 1.14494 1.15015 1.15609
          1.1627 1.16982 1.17635 1.16305 1.90309 1.12691 1.12672 1.12641 1.12624 1.11906 1.11875 1.11874
          1.11875 1.11891 1.12562 1.12605 1.1269 1.1282 1.12999 1.13229 1.13515 1.13861 1.14269 1.14741
          1.15281 1.15894 1.16615 1.17639 1.21397 1.12045 1.12547 1.12541 1.12529 1.1252 1.119 1.11875
          1.11874 1.11875 1.11889 1.12496 1.12535 1.12612 1.1273 1.12891 1.13097 1.13353 1.13661 1.14022
          1.14439 1.14912 1.15448 1.16072 1.16854 1.16947 1.16547 1.12429 1.12426 1.12421 1.12416 1.11895
          1.11875 1.11874 1.11874 1.11887 1.12429 1.12463 1.12532 1.12636 1.12779 1.12961 1.13185 1.13453
          1.13765 1.14121 1.14518 1.14951 1.15405 1.15783 1.15947 1.15962 1.12325 1.12324 1.12322 1.12319
          1.1189 1.11875 1.11874 1.11874 1.11886 1.12361 1.12391 1.12451 1.12542 1.12666 1.12824 1.13016
          1.13245 1.13508 1.13803 1.14123 1.14456 1.14774 1.15028 1.15177 1.15223 1.12234 1.12233 1.12232
          1.1223 1.11886 1.11875 1.11874 1.11874 1.11884 1.12294 1.1232 1.12372 1.12451 1.12557 1.12691
          1.12854 1.13045 1.13262 1.13501 1.13753 1.14007 1.14239 1.14423 1.1454 1.14579 1.12154 1.12153
          1.12152 1.12151 1.11883 1.11874 1.11874 1.11874 1.11882 1.12229 1.12251 1.12296 1.12363 1.12453
          1.12566 1.12702 1.12859 1.13036 1.13227 1.13424 1.13617 1.1379 1.13927 1.14015 1.14045 1.12083
          1.12082 1.12082 1.12081 1.1188 1.11874 1.11874 1.11874 1.1188 1.12167 1.12186 1.12225 1.12282
          1.12357 1.12452 1.12564 1.12693 1.12836 1.12988 1.13142 1.1329 1.13421 1.13523 1.13589 1.13612
          1.12021 1.1202 1.1202 1.12019 1.11878 1.11874 1.11874 1.11874 1.11879 1.12108 1.12125 1.12159
          1.12207 1.12272 1.12351 1.12444 1.1255 1.12666 1.12787 1.12908 1.13023 1.13123 1.13202 1.13252
          1.13269 1.11967 1.11966 1.11965 1.11964 1.11876 1.11874 1.11874 1.11874 1.11877 1.12053 1.12068
          1.12098 1.12142 1.12197 1.12265 1.12343 1.12431 1.12526 1.12625 1.12722 1.12813 1.12892 1.12954
          1.12992 1.13006 1.11919 1.11919 1.11918 1.11916 1.11874 1.11874 1.11874 1.11874 1.11875 1.11999
          1.12015 1.12045 1.12085 1.12134 1.12194 1.12262 1.12337 1.12418 1.12501 1.12582 1.12658 1.12722
          1.12772 1.12804 1.12815 1.11879 1.11878 1.11877 1.11872 1.11871 1.11872 1.11878 1.11892 1.11915
          1.11935 1.11968 1.11999 1.12038 1.12084 1.12138 1.122 1.12269 1.12341 1.12415 1.12487 1.12553
          1.1261 1.12653 1.12681 1.1269 1.11845 1.11844 1.11842 1.1184 1.11839 1.11841 1.11847 1.11861
          1.1188 1.11903 1.11931 1.11963 1.12001 1.12046 1.12099 1.12159 1.12225 1.12295 1.12365 1.12434
          1.12497 1.12552 1.12593 1.12619 1.12628
        </DataArray>
        <DataArray type="Float32" Name="saturation_l" NumberOfComponents="1" format="ascii">
          7.28882e-06 7.28882e-06 7.28868e-06 7.28868e-06 7.28882e-06 7.28868e-06 7.28882e-06 7.28868e-06 7.28869e-06 7.28869e-06 7.28869e-06 7.28869e-06
          7.28869e-06 7.28869e-06 7.28869e-06 7.28869e-06 7.28869e-06 7.28869e-06 7.28882e-06 7.28868e-06 7.28882e-06 7.28868e-06 7.28882e-06 7.28868e-06
          7.28882e-06 7.28868e-06 7.28882e-06 7.28868e-06 7.28882e-06 7.28868e-06 7.28882e-06 7.28868e-06 7.28882e-06 7.28868e-06 7.28882e-06 7.28868e-06
          7.28881e-06 7.28868e-06 7.28881e-06 7.28867e-06 7.28881e-06 7.28867e-06 7.37014e-06 7.35042e-06 0.00231804 0.00202906 0.431955 0.370903
          0.995344 0.994955 7.28868e-06 7.28868e-06 7.28868e-06 7.28868e-06 7.28869e-06 7.28869e-06 7.28869e-06 7.28869e-06 7.28869e-06 7.28868e-06
          7.28868e-06 7.28868e-06 7.28868e-06 7.28868e-06 7.28868e-06 7.28868e-06 7.28868e-06 7.28868e-06 7.28868e-06 7.28867e-06 7.28867e-06 7.31814e-06
          0.00155362 0.370665 0.995069 7.28868e-06 7.28868e-06 7.28868e-06 7.28868e-06 7.28869e-06 7.28869e-06 7.28869e-06 7.28869e-06 7.28869e-06
          7.28868e-06 7.28868e-06 7.28868e-06 7.28868e-06 7.28868e-06 7.28868e-06 7.28868e-06 7.28868e-06 7.28868e-06 7.28868e-06 7.28868e-06 7.28867e-06
          7.28995e-06 0.000381807 0.351995 0.995443 7.28868e-06 7.28868e-06 7.28868e-06 7.28868e-06 7.28869e-06 7.28869e-06 7.28869e-06 7.28869e-06
          7.28869e-06 7.28868e-06 7.28868e-06 7.28868e-06 7.28868e-06 7.28868e-06 7.28868e-06 7.28868e-06 7.28868e-06 7.28868e-06 7.28868e-06 7.28868e-06
          7.28867e-06 7.28872e-06 4.45747e-05 0.219619 0.993484 7.28868e-06 7.28868e-06 7.28868e-06 7.28868e-06 7.28869e-06 7.28869e-06 7.28869e-06
          7.28869e-06 7.28869e-06 7.28868e-06 7.28868e-06 7.28868e-06 7.28868e-06 7.28868e-06 7.28868e-06 7.28868e-06 7.28868e-06 7.28868e-06 7.28868e-06
          7.28868e-06 7.28868e-06 7.28867e-06 7.30072e-06 0.000647449 0.0889448 7.28868e-06 7.28869e-06 7.28869e-06 7.28869e-06 7.28869e-06 7.28869e-06
          7.28869e-06 7.28869e-06 7.28869e-06 7.28869e-06 7.28869e-06 7.28868e-06 7.28868e-06 7.28868e-06 7.28868e-06 7.28868e-06 7.28868e-06 7.28868e-06
          7.28868e-06 7.28868e-06 7.28868e-06 7.28867e-06 7.28867e-06 7.28867e-06 7.28867e-06 7.28869e-06 7.28869e-06 7.28869e-06 7.28869e-06 7.28869e-06
          7.28869e-06 7.28869e-06 7.28869e-06 7.28869e-06 7.28869e-06 7.28869e-06 7.28869e-06 7.28868e-06 7.28868e-06 7.28868e-06 7.28868e-06 7.28868e-06
          7.28868e-06 7.28868e-06 7.28868e-06 7.28868e-06 7.28868e-06 7.28868e-06 7.28868e-06 7.28868e-06 7.28869e-06 7.28869e-06 7.28869e-06 7.28869e-06
          7.28869e-06 7.28869e-06 7.28869e-06 7.28869e-06 7.28869e-06 7.28869e-06 7.28869e-06 7.28869e-06 7.28868e-06 7.28868e-06 7.28868e-06 7.28868e-06
          7.28868e-06 7.28868e-06 7.28868e-06 7.28868e-06 7.28868e-06 7.28868e-06 7.28868e-06 7.28868e-06 7.28868e-06 7.28869e-06 7.28869e-06 7.28869e-06
          7.28869e-06 7.28869e-06 7.28869e-06 7.28869e-06 7.28869e-06 7.28869e-06 7.28869e-06 7.28869e-06 7.28869e-06 7.28869e-06 7.28868e-06 7.28868e-06
          7.28868e-06 7.28868e-06 7.28868e-06 7.28868e-06 7.28868e-06 7.28868e-06 7.28868e-06 7.28868e-06 7.28868e-06 7.28868e-06 7.28869e-06 7.28869e-06
          7.28869e-06 7.28869e-06 7.28869e-06 7.28869e-06 7.28869e-06 7.28869e-06 7.28869e-06 7.28869e-06 7.28869e-06 7.28869e-06 7.28869e-06 7.28869e-06
          7.28868e-06 7.28868e-06 7.28868e-06 7.28868e-06 7.28868e-06 7.28868e-06 7.28868e-06 7.28868e-06 7.28868e-06 7.28868e-06 7.28868e-06 7.28869e-06
          7.28869e-06 7.28869e-06 7.28869e-06 7.28869e-06 7.28869e-06 7.28869e-06 7.28869e-06 7.28869e-06 7.28869e-06 7.28869e-06 7.28869e-06 7.28869e-06
          7.28869e-06 7.28869e-06 7.28868e-06 7.28868e-06 7.28868e-06 7.28868e-06 7.28868e-06 7.28868e-06 7.28868e-06 7.28868e-06 7.28868e-06 7.28868e-06
          7.28869e-06 7.28869e-06 7.28869e-06 7.28869e-06 7.28869e-06 7.28869e-06 7.28869e-06 7.28869e-06 7.28869e-06 7.28869e-06 7.28869e-06 7.28869e-06
          7.28869e-06 7.28869e-06 7.28869e-06 7.28869e-06 7.28868e-06 7.28868e-06 7.28868e-06 7.28868e-06 7.28868e-06 7.28868e-06 7.28868e-06 7.28868e-06
          7.28868e-06 7.28869e-06 7.28869e-06 7.28869e-06 7.28869e-06 7.28869e-06 7.28869e-06 7.28869e-06 7.28869e-06 7.28869e-06 7.28869e-06 7.28869e-06
          7.28869e-06 7.28869e-06 7.28869e-06 7.28869e-06 7.28869e-06 7.28869e-06 7.28869e-06 7.28868e-06 7.28868e-06 7.28868e-06 7.28868e-06 7.28868e-06
          7.28868e-06 7.28868e-06 7.28869e-06 7.28869e-06 7.28869e-06 7.28869e-06 7.28869e-06 7.28869e-06 7.28869e-06 7.28869e-06 7.28869e-06 7.28869e-06
          7.28869e-06 7.28869e-06 7.28869e-06 7.28869e-06 7.28869e-06 7.28869e-06 7.28869e-06 7.28869e-06 7.28869e-06 7.28868e-06 7.28868e-06 7.28868e-06
          7.28868e-06 7.28868e-06 7.28868e-06 7.28869e-06 7.28869e-06 7.28869e-06 7.28869e-06 7.28876e-06 7.28876e-06 7.28876e-06 7.28876e-06 7.28876e-06
          7.28869e-06 7.28869e-06 7.28869e-06 7.28869e-06 7.28869e-06 7.28869e-06 7.28869e-06 7.28869e-06 7.28869e-06 7.28869e-06 7.28869e-06 7.28868e-06
          7.28868e-06 7.28868e-06 7.28868e-06 7.28868e-06 7.28855e-06 7.28855e-06 7.28855e-06 7.28855e-06 7.28855e-06 7.28855e-06 7.28855e-06 7.28855e-06
          7.28855e-06 7.28855e-06 7.28855e-06 7.28855e-06 7.28855e-06 7.28855e-06 7.28855e-06 7.28855e-06 7.28855e-06 7.28855e-06 7.28855e-06 7.28855e-06
          7.28855e-06 7.28855e-06 7.28855e-06 7.28855e-06 7.28855e-06
        </DataArray>
        <DataArray type="Float32" Name="saturation_g" NumberOfComponents="1" format="ascii">
          0.999993 0.999993 0.999993 0.999993 0.999993 0.999993 0.999993 0.999993 0.999993 0.999993 0.999993 0.999993
          0.999993 0.999993 0.999993 0.999993 0.999993 0.999993 0.999993 0.999993 0.999993 0.999993 0.999993 0.999993
          0.999993 0.999993 0.999993 0.999993 0.999993 0.999993 0.999993 0.999993 0.999993 0.999993 0.999993 0.999993
          0.999993 0.999993 0.999993 0.999993 0.999993 0.999993 0.999993 0.999993 0.997682 0.997971 0.568045 0.629097
          0.00465608 0.00504533 0.999993 0.999993 0.999993 0.999993 0.999993 0.999993 0.999993 0.999993 0.999993 0.999993
          0.999993 0.999993 0.999993 0.999993 0.999993 0.999993 0.999993 0.999993 0.999993 0.999993 0.999993 0.999993
          0.998446 0.629335 0.00493108 0.999993 0.999993 0.999993 0.999993 0.999993 0.999993 0.999993 0.999993 0.999993
          0.999993 0.999993 0.999993 0.999993 0.999993 0.999993 0.999993 0.999993 0.999993 0.999993 0.999993 0.999993
          0.999993 0.999618 0.648005 0.00455703 0.999993 0.999993 0.999993 0.999993 0.999993 0.999993 0.999993 0.999993
          0.999993 0.999993 0.999993 0.999993 0.999993 0.999993 0.999993 0.999993 0.999993 0.999993 0.999993 0.999993
          0.999993 0.999993 0.999955 0.780381 0.00651633 0.999993 0.999993 0.999993 0.999993 0.999993 0.999993 0.999993
          0.999993 0.999993 0.999993 0.999993 0.999993 0.999993 0.999993 0.999993 0.999993 0.999993 0.999993 0.999993
          0.999993 0.999993 0.999993 0.999993 0.999353 0.911055 0.999993 0.999993 0.999993 0.999993 0.999993 0.999993
          0.999993 0.999993 0.999993 0.999993 0.999993 0.999993 0.999993 0.999993 0.999993 0.999993 0.999993 0.999993
          0.999993 0.999993 0.999993 0.999993 0.999993 0.999993 0.999993 0.999993 0.999993 0.999993 0.999993 0.999993
          0.999993 0.999993 0.999993 0.999993 0.999993 0.999993 0.999993 0.999993 0.999993 0.999993 0.999993 0.999993
          0.999993 0.999993 0.999993 0.999993 0.999993 0.999993 0.999993 0.999993 0.999993 0.999993 0.999993 0.999993
          0.999993 0.999993 0.999993 0.999993 0.999993 0.999993 0.999993 0.999993 0.999993 0.999993 0.999993 0.999993
          0.999993 0.999993 0.999993 0.999993 0.999993 0.999993 0.999993 0.999993 0.999993 0.999993 0.999993 0.999993
          0.999993 0.999993 0.999993 0.999993 0.999993 0.999993 0.999993 0.999993 0.999993 0.999993 0.999993 0.999993
          0.999993 0.999993 0.999993 0.999993 0.999993 0.999993 0.999993 0.999993 0.999993 0.999993 0.999993 0.999993
          0.999993 0.999993 0.999993 0.999993 0.999993 0.999993 0.999993 0.999993 0.999993 0.999993 0.999993 0.999993
          0.999993 0.999993 0.999993 0.999993 0.999993 0.999993 0.999993 0.999993 0.999993 0.999993 0.999993 0.999993
          0.999993 0.999993 0.999993 0.999993 0.999993 0.999993 0.999993 0.999993 0.999993 0.999993 0.999993 0.999993
          0.999993 0.999993 0.999993 0.999993 0.999993 0.999993 0.999993 0.999993 0.999993 0.999993 0.999993 0.999993
          0.999993 0.999993 0.999993 0.999993 0.999993 0.999993 0.999993 0.999993 0.999993 0.999993 0.999993 0.999993
          0.999993 0.999993 0.999993 0.999993 0.999993 0.999993 0.999993 0.999993 0.999993 0.999993 0.999993 0.999993
          0.999993 0.999993 0.999993 0.999993 0.999993 0.999993 0.999993 0.999993 0.999993 0.999993 0.999993 0.999993
          0.999993 0.999993 0.999993 0.999993 0.999993 0.999993 0.999993 0.999993 0.999993 0.999993 0.999993 0.999993
          0.999993 0.999993 0.999993 0.999993 0.999993 0.999993 0.999993 0.999993 0.999993 0.999993 0.999993 0.999993
          0.999993 0.999993 0.999993 0.999993 0.999993 0.999993 0.999993 0.999993 0.999993 0.999993 0.999993 0.999993
          0.999993 0.999993 0.999993 0.999993 0.999993 0.999993 0.999993 0.999993 0.999993 0.999993 0.999993 0.999993
          0.999993 0.999993 0.999993 0.999993 0.999993 0.999993 0.999993 0.999993 0.999993 0.999993 0.999993 0.999993
          0.999993 0.999993 0.999993 0.999993 0.999993 0.999993 0.999993 0.999993 0.999993 0.999993 0.999993 0.999993
          0.999993 0.999993 0.999993 0.999993 0.999993 0.999993 0.999993 0.999993 0.999993 0.999993 0.999993 0.999993
          0.999993 0.999993 0.999993 0.999993 0.999993
        </DataArray>
        <DataArray type="Float32" Name="relativePerm_l" NumberOfComponents="1" format="ascii">
          4.72248e-10 4.72248e-10 4.7223e-10 4.7223e-10 4.72248e-10 4.7223e-10 4.72248e-10 4.7223e-10 4.7223e-10 4.7223e-10 4.7223e-10 4.7223e-10
          4.7223e-10 4.7223e-10 4.7223e-10 4.7223e-10 4.7223e-10 4.7223e-10 4.72248e-10 4.7223e-10 4.72248e-10 4.7223e-10 4.72248e-10 4.7223e-10
          4.72248e-10 4.7223e-10 4.72248e-10 4.7223e-10 4.72248e-10 4.7223e-10 4.72248e-10 4.7223e-10 4.72247e-10 4.72229e-10 4.72247e-10 4.72229e-10
          4.72247e-10 4.72229e-10 4.72247e-10 4.72229e-10 4.72246e-10 4.72228e-10 4.82845e-10 4.80264e-10 4.80394e-05 3.67819e-05 0.428175 0.363731
          0.999805 0.999771 4.7223e-10 4.7223e-10 4.7223e-10 4.7223e-10 4.7223e-10 4.7223e-10 4.7223e-10 4.7223e-10 4.7223e-10 4.7223e-10
          4.7223e-10 4.7223e-10 4.7223e-10 4.7223e-10 4.7223e-10 4.7223e-10 4.7223e-10 4.72229e-10 4.72229e-10 4.72229e-10 4.72229e-10 4.76055e-10
          2.15386e-05 0.363479 0.999781 4.7223e-10 4.7223e-10 4.7223e-10 4.7223e-10 4.7223e-10 4.7223e-10 4.7223e-10 4.7223e-10 4.7223e-10
          4.7223e-10 4.7223e-10 4.7223e-10 4.7223e-10 4.7223e-10 4.7223e-10 4.7223e-10 4.7223e-10 4.72229e-10 4.72229e-10 4.72229e-10 4.72229e-10
          4.72394e-10 1.29703e-06 0.343772 0.999813 4.7223e-10 4.7223e-10 4.7223e-10 4.7223e-10 4.7223e-10 4.7223e-10 4.7223e-10 4.7223e-10
          4.7223e-10 4.7223e-10 4.7223e-10 4.7223e-10 4.7223e-10 4.7223e-10 4.7223e-10 4.7223e-10 4.7223e-10 4.72229e-10 4.72229e-10 4.72229e-10
          4.72229e-10 4.72234e-10 1.76633e-08 0.204042 0.999616 4.7223e-10 4.7223e-10 4.7223e-10 4.7223e-10 4.7223e-10 4.7223e-10 4.7223e-10
          4.7223e-10 4.7223e-10 4.7223e-10 4.7223e-10 4.7223e-10 4.7223e-10 4.7223e-10 4.7223e-10 4.7223e-10 4.7223e-10 4.7223e-10 4.72229e-10
          4.72229e-10 4.72229e-10 4.72229e-10 4.73791e-10 3.73217e-06 0.0661084 4.7223e-10 4.7223e-10 4.7223e-10 4.7223e-10 4.7223e-10 4.7223e-10
          4.7223e-10 4.7223e-10 4.7223e-10 4.7223e-10 4.7223e-10 4.7223e-10 4.7223e-10 4.7223e-10 4.7223e-10 4.7223e-10 4.7223e-10 4.7223e-10
          4.72229e-10 4.72229e-10 4.72229e-10 4.72229e-10 4.72229e-10 4.72229e-10 4.72229e-10 4.7223e-10 4.7223e-10 4.7223e-10 4.7223e-10 4.7223e-10
          4.7223e-10 4.7223e-10 4.7223e-10 4.7223e-10 4.7223e-10 4.7223e-10 4.7223e-10 4.7223e-10 4.7223e-10 4.7223e-10 4.7223e-10 4.7223e-10
          4.7223e-10 4.7223e-10 4.72229e-10 4.72229e-10 4.72229e-10 4.72229e-10 4.72229e-10 4.72229e-10 4.7223e-10 4.7223e-10 4.7223e-10 4.7223e-10
          4.7223e-10 4.7223e-10 4.7223e-10 4.7223e-10 4.7223e-10 4.7223e-10 4.7223e-10 4.7223e-10 4.7223e-10 4.7223e-10 4.7223e-10 4.7223e-10
          4.7223e-10 4.7223e-10 4.7223e-10 4.7223e-10 4.72229e-10 4.72229e-10 4.72229e-10 4.72229e-10 4.72229e-10 4.7223e-10 4.7223e-10 4.7223e-10
          4.7223e-10 4.7223e-10 4.7223e-10 4.7223e-10 4.7223e-10 4.7223e-10 4.7223e-10 4.7223e-10 4.7223e-10 4.7223e-10 4.7223e-10 4.7223e-10
          4.7223e-10 4.7223e-10 4.7223e-10 4.7223e-10 4.7223e-10 4.7223e-10 4.7223e-10 4.72229e-10 4.72229e-10 4.72229e-10 4.7223e-10 4.7223e-10
          4.7223e-10 4.7223e-10 4.7223e-10 4.7223e-10 4.7223e-10 4.7223e-10 4.7223e-10 4.7223e-10 4.7223e-10 4.7223e-10 4.7223e-10 4.7223e-10
          4.7223e-10 4.7223e-10 4.7223e-10 4.7223e-10 4.7223e-10 4.7223e-10 4.7223e-10 4.7223e-10 4.7223e-10 4.7223e-10 4.7223e-10 4.7223e-10
          4.7223e-10 4.7223e-10 4.7223e-10 4.7223e-10 4.7223e-10 4.7223e-10 4.7223e-10 4.7223e-10 4.7223e-10 4.7223e-10 4.7223e-10 4.7223e-10
          4.7223e-10 4.7223e-10 4.7223e-10 4.7223e-10 4.7223e-10 4.7223e-10 4.7223e-10 4.7223e-10 4.7223e-10 4.7223e-10 4.7223e-10 4.7223e-10
          4.7223e-10 4.7223e-10 4.7223e-10 4.7223e-10 4.7223e-10 4.7223e-10 4.7223e-10 4.7223e-10 4.7223e-10 4.7223e-10 4.7223e-10 4.7223e-10
          4.7223e-10 4.7223e-10 4.7223e-10 4.7223e-10 4.7223e-10 4.7223e-10 4.7223e-10 4.7223e-10 4.7223e-10 4.7223e-10 4.7223e-10 4.7223e-10
          4.7223e-10 4.7223e-10 4.7223e-10 4.7223e-10 4.7223e-10 4.7223e-10 4.7223e-10 4.7223e-10 4.7223e-10 4.7223e-10 4.7223e-10 4.7223e-10
          4.7223e-10 4.7223e-10 4.7223e-10 4.7223e-10 4.7223e-10 4.7223e-10 4.7223e-10 4.7223e-10 4.7223e-10 4.7223e-10 4.7223e-10 4.7223e-10
          4.7223e-10 4.7223e-10 4.7223e-10 4.7223e-10 4.7223e-10 4.7223e-10 4.7223e-10 4.7223e-10 4.7223e-10 4.7223e-10 4.7223e-10 4.7223e-10
          4.7223e-10 4.7223e-10 4.7223e-10 4.7223e-10 4.7223e-10 4.7223e-10 4.7223e-10 4.7223e-10 4.7223e-10 4.7223e-10 4.7223e-10 4.7223e-10
          4.7223e-10 4.7223e-10 4.7223e-10 4.7223e-10 4.7223e-10 4.7223e-10 4.7223e-10 4.72239e-10 4.72239e-10 4.72239e-10 4.72239e-10 4.72239e-10
          4.7223e-10 4.7223e-10 4.7223e-10 4.7223e-10 4.7223e-10 4.7223e-10 4.7223e-10 4.7223e-10 4.7223e-10 4.7223e-10 4.7223e-10 4.7223e-10