<?xml version="1.0"?>
<VTKFile type="UnstructuredGrid" version="0.1" byte_order="LittleEndian">
  <UnstructuredGrid>
    <Piece NumberOfCells="384" NumberOfPoints="425">
      <PointData Scalars="pressure_l">
        <DataArray type="Float32" Name="pressure_l" NumberOfComponents="1" format="ascii">
          100010 100049 100007 100029 100067 100044 100077 100051 100005 100003 100002 100000
          100002 100000 100002 100000 100015 100013 100489 100457 100513 100483 100566 100535
          100649 100618 100768 100735 100927 100893 101134 101097 101398 101357 101727 101682
          102134 102082 102626 102569 103209 103150 103865 103827 104448 104617 103410 106174
          160889 136999 100004 100018 100027 100032 100002 100000 100000 100000 100011 100424
          100449 100500 100581 100694 100845 101041 101290 101601 101985 102452 103017 103702
          104568 105411 133024 100002 100010 100016 100019 100001 100000 100000 100000 100010
          100389 100413 100461 100537 100644 100786 100969 101202 101490 101845 102277 102801
          103437 104170 104328 127562 100002 100005 100008 100010 100001 100000 100000 100000
          100009 100352 100374 100419 100489 100587 100717 100884 101095 101354 101671 102053
          102512 103065 103769 105364 103779 99999.4 100000 100001 100002 100000 100000 100000
          100000 100007 100314 100334 100375 100438 100526 100642 100791 100976 101202 101474
          101796 102174 102614 103133 103485 103469 99993.9 99994.2 99994.7 99995.1 100000 100000
          100000 100000 100006 100274 100292 100329 100385 100462 100564 100692 100851 101042
          101268 101529 101822 102139 102440 102644 102710 99987.2 99987.4 99987.6 99987.8 99999.7
          100000 100000 100000 100005 100235 100251 100283 100331 100398 100484 100593 100726
          100883 101065 101269 101489 101709 101903 102036 102083 99979.5 99979.6 99979.7 99979.9
          99999.5 100000 100000 100000 100004 100197 100210 100237 100278 100335 100407 100498
          100606 100733 100876 101032 101194 101349 101480 101568 101599 99970.7 99970.7 99970.8
          99971 99999.2 100000 100000 100000 100003 100159 100170 100193 100227 100274 100334
          100408 100495 100595 100706 100824 100943 101053 101143 101203 101224 99960.5 99960.5
          99960.6 99960.8 99998.8 100000 100000 100000 100002 100122 100132 100151 100179 100218
          100267 100326 100395 100474 100559 100647 100734 100813 100877 100919 100933 99948.7
          99948.8 99948.9 99949.1 99998.4 100000 100000 100000 100001 100087 100095 100110 100134
          100166 100205 100253 100307 100368 100434 100500 100565 100622 100668 100697 100707
          99935.2 99935.2 99935.4 99935.5 99997.9 100000 100000 100000 100000 100052 100059 100072
          100092 100118 100150 100188 100232 100279 100330 100380 100429 100471 100504 100526
          100533 99919.6 99919.8 99919.9 99919.8 99997.2 99999.9 100000 100000 99999.1 100018 100024
          100036 100053 100075 100101 100133 100168 100206 100245 100285 100322 100354 100379
          100395 100400 99901.6 99902.1 99903.4 99901.3 99994.6 99997.5 99997.8 99997.9 99996.6 99982.9
          99991.5 100003 100018 100036 100059 100085 100115 100146 100179 100210 100240 100266
          100286 100298 100302 99880.3 99881.3 99884.7 99895.3 99898.5 99910.6 99920.4 99929.3 99938.6
          99952.2 99960.5 99971.4 99985.2 100002 100023 100046 100072 100100 100128 100156 100181
          100203 100220 100231 100234 99855 99856.2 99860.5 99867.1 99874.4 99883.3 99892.8 99901.8
          99911.5 99921.8 99931.7 99942.6 99956 99972.6 99992.2 100015 100040 100066 100093 100119
          100143 100164 100180 100190 100194
        </DataArray>
        <DataArray type="Float32" Name="pressure_g" NumberOfComponents="1" format="ascii">
          100010 100049 100007 100029 100067 100044 100077 100051 100005 100003 100002 100000
          100002 100000 100002 100000 100015 100013 100489 100457 100513 100483 100566 100535
          100649 100618 100768 100735 100927 100893 101134 101097 101398 101357 101727 101682
          102134 102082 102626 102569 103209 103150 103865 103827 104448 104617 103410 106174
          160889 136999 100004 100018 100027 100032 100002 100000 100000 100000 100011 100424
          100449 100500 100581 100694 100845 101041 101290 101601 101985 102452 103017 103702
          104568 105411 133024 100002 100010 100016 100019 100001 100000 100000 100000 100010
          100389 100413 100461 100537 100644 100786 100969 101202 101490 101845 102277 102801
          103437 104170 104328 127562 100002 100005 100008 100010 100001 100000 100000 100000
          100009 100352 100374 100419 100489 100587 100717 100884 101095 101354 101671 102053
          102512 103065 103769 105364 103779 99999.4 100000 100001 100002 100000 100000 100000
          100000 100007 100314 100334 100375 100438 100526 100642 100791 100976 101202 101474
          101796 102174 102614 103133 103485 103469 99993.9 99994.2 99994.7 99995.1 100000 100000
          100000 100000 100006 100274 100292 100329 100385 100462 100564 100692 100851 101042
          101268 101529 101822 102139 102440 102644 102710 99987.2 99987.4 99987.6 99987.8 99999.7
          100000 100000 100000 100005 100235 100251 100283 100331 100398 100484 100593 100726
          100883 101065 101269 101489 101709 101903 102036 102083 99979.5 99979.6 99979.7 99979.9
          99999.5 100000 100000 100000 100004 100197 100210 100237 100278 100335 100407 100498
          100606 100733 100876 101032 101194 101349 101480 101568 101599 99970.7 99970.7 99970.8
          99971 99999.2 100000 100000 100000 100003 100159 100170 100193 100227 100274 100334
          100408 100495 100595 100706 100824 100943 101053 101143 101203 101224 99960.5 99960.5
          99960.6 99960.8 99998.8 100000 100000 100000 100002 100122 100132 100151 100179 100218
          100267 100326 100395 100474 100559 100647 100734 100813 100877 100919 100933 99948.7
          99948.8 99948.9 99949.1 99998.4 100000 100000 100000 100001 100087 100095 100110 100134
          100166 100205 100253 100307 100368 100434 100500 100565 100622 100668 100697 100707
          99935.2 99935.2 99935.4 99935.5 99997.9 100000 100000 100000 100000 100052 100059 100072
          100092 100118 100150 100188 100232 100279 100330 100380 100429 100471 100504 100526
          100533 99919.6 99919.8 99919.9 99919.8 99997.2 99999.9 100000 100000 99999.1 100018 100024
          100036 100053 100075 100101 100133 100168 100206 100245 100285 100322 100354 100379
          100395 100400 99901.6 99902.1 99903.4 99901.3 99994.6 99997.5 99997.8 99997.9 99996.6 99982.9
          99991.5 100003 100018 100036 100059 100085 100115 100146 100179 100210 100240 100266
          100286 100298 100302 99880.3 99881.3 99884.7 99895.3 99898.5 99910.6 99920.4 99929.3 99938.6
          99952.2 99960.5 99971.4 99985.2 100002 100023 100046 100072 100100 100128 100156 100181
          100203 100220 100231 100234 99855 99856.2 99860.5 99867.1 99874.4 99883.3 99892.8 99901.8
          99911.5 99921.8 99931.7 99942.6 99956 99972.6 99992.2 100015 100040 100066 100093 100119
          100143 100164 100180 100190 100194
        </DataArray>
        <DataArray type="Float32" Name="density_l" NumberOfComponents="1" format="ascii">
          996.375 996.375 996.375 996.375 996.375 996.375 996.375 996.375 996.375 996.375 996.375 996.375
          996.375 996.375 996.375 996.375 996.375 996.375 996.375 996.375 996.375 996.375 996.375 996.375
          996.376 996.375 996.376 996.376 996.376 996.376 996.376 996.376 996.376 996.376 996.376 996.376
          996.376 996.376 996.376 996.376 996.376 996.376 996.374 996.372 996.365 996.359 996.358 996.359
          996.388 996.375 996.375 996.375 996.375 996.375 996.375 996.375 996.375 996.375 996.375 996.375
          996.375 996.375 996.375 996.376 996.376 996.376 996.376 996.376 996.376 996.376 996.376 996.372
          996.359 996.359 996.373 996.375 996.375 996.375 996.375 996.375 996.375 996.375 996.375 996.375
          996.375 996.375 996.375 996.375 996.376 996.376 996.376 996.376 996.376 996.376 996.376 996.376
          996.374 996.363 996.358 996.37 996.375 996.375 996.375 996.375 996.375 996.375 996.375 996.375
          996.375 996.375 996.375 996.375 996.375 996.375 996.376 996.376 996.376 996.376 996.376 996.376
          996.376 996.375 996.367 996.359 996.358 996.375 996.375 996.375 996.375 996.375 996.375 996.375
          996.375 996.375 996.375 996.375 996.375 996.375 996.375 996.376 996.376 996.376 996.376 996.376
          996.376 996.376 996.376 996.374 996.366 996.366 996.375 996.375 996.375 996.375 996.375 996.375
          996.375 996.375 996.375 996.375 996.375 996.375 996.375 996.375 996.375 996.376 996.376 996.376
          996.376 996.376 996.376 996.376 996.376 996.375 996.374 996.375 996.375 996.375 996.375 996.375
          996.375 996.375 996.375 996.375 996.375 996.375 996.375 996.375 996.375 996.375 996.375 996.376
          996.376 996.376 996.376 996.376 996.376 996.376 996.376 996.376 996.375 996.375 996.375 996.375
          996.375 996.375 996.375 996.375 996.375 996.375 996.375 996.375 996.375 996.375 996.375 996.375
          996.375 996.376 996.376 996.376 996.376 996.376 996.376 996.376 996.376 996.375 996.375 996.375
          996.375 996.375 996.375 996.375 996.375 996.375 996.375 996.375 996.375 996.375 996.375 996.375
          996.375 996.375 996.375 996.376 996.376 996.376 996.376 996.376 996.376 996.376 996.375 996.375
          996.375 996.375 996.375 996.375 996.375 996.375 996.375 996.375 996.375 996.375 996.375 996.375
          996.375 996.375 996.375 996.375 996.375 996.376 996.376 996.376 996.376 996.376 996.376 996.375
          996.375 996.375 996.375 996.375 996.375 996.375 996.375 996.375 996.375 996.375 996.375 996.375
          996.375 996.375 996.375 996.375 996.375 996.375 996.375 996.375 996.375 996.376 996.376 996.376
          996.375 996.375 996.375 996.375 996.375 996.375 996.375 996.375 996.375 996.375 996.375 996.375
          996.375 996.375 996.375 996.375 996.375 996.375 996.375 996.375 996.375 996.375 996.375 996.375
          996.375 996.375 996.375 996.375 996.375 996.375 996.375 996.375 996.375 996.375 996.375 996.375
          996.375 996.375 996.375 996.375 996.375 996.375 996.375 996.375 996.375 996.375 996.375 996.375
          996.375 996.375 996.375 996.375 996.375 996.375 996.375 996.375 996.375 996.375 996.375 996.375
          996.375 996.375 996.375 996.375 996.375 996.375 996.375 996.375 996.375 996.375 996.375 996.375
          996.375 996.375 996.375 996.375 996.375 996.375 996.375 996.375 996.375 996.375 996.375 996.375
          996.375 996.375 996.375 996.375 996.375 996.375 996.375 996.375 996.375 996.375 996.375 996.375
          996.375 996.375 996.375 996.375 996.375 996.375 996.375 996.375 996.375 996.375 996.375 996.375
          996.375 996.375 996.375 996.375 996.375 996.375 996.375 996.375 996.375 996.375 996.375 996.375
          996.375 996.375 996.375 996.375 996.375
        </DataArray>
        <DataArray type="Float32" Name="density_g" NumberOfComponents="1" format="ascii">
          1.12611 1.12655 1.12607 1.12631 1.12675 1.12648 1.12686 1.12656 1.12605 1.12602 1.12601 1.12599
          1.12601 1.12599 1.12601 1.12599 1.12616 1.12614 1.1315 1.13114 1.13177 1.13143 1.13236 1.13202
          1.13331 1.13295 1.13464 1.13427 1.13643 1.13604 1.13877 1.13834 1.14173 1.14127 1.14544 1.14493
          1.15002 1.14944 1.15556 1.15491 1.16207 1.16138 1.16891 1.16804 1.17196 1.16626 1.15263 1.18386
          1.80217 1.53219 1.12604 1.12619 1.1263 1.12635 1.12601 1.12599 1.12599 1.12599 1.12612 1.13077
          1.13105 1.13163 1.13253 1.1338 1.13551 1.13772 1.14052 1.14402 1.14834 1.1536 1.1599 1.16678
          1.16662 1.17524 1.48728 1.12602 1.12611 1.12618 1.12621 1.126 1.12599 1.12599 1.12599 1.1261
          1.13037 1.13064 1.13119 1.13204 1.13324 1.13484 1.13691 1.13952 1.14277 1.14677 1.15163 1.1575
          1.16421 1.16783 1.163 1.42556 1.12602 1.12605 1.12608 1.1261 1.126 1.12599 1.12599 1.12599
          1.12609 1.12995 1.1302 1.13071 1.1315 1.1326 1.13407 1.13595 1.13832 1.14124 1.14481 1.14911
          1.15426 1.16027 1.16589 1.17471 1.1568 1.12599 1.12599 1.12601 1.12602 1.126 1.12599 1.12599
          1.12599 1.12608 1.12952 1.12975 1.13021 1.13092 1.13191 1.13322 1.13489 1.13698 1.13953 1.14259
          1.14622 1.15047 1.1554 1.16086 1.1622 1.16215 1.12592 1.12593 1.12593 1.12594 1.12599 1.12599
          1.12599 1.12599 1.12606 1.12908 1.12929 1.12969 1.13032 1.13119 1.13234 1.13379 1.13557 1.13772
          1.14027 1.1432 1.14651 1.15008 1.15343 1.15545 1.15613 1.12585 1.12585 1.12585 1.12585 1.12599
          1.12599 1.12599 1.12599 1.12605 1.12864 1.12882 1.12917 1.12972 1.13047 1.13145 1.13267 1.13416
          1.13594 1.13798 1.14028 1.14276 1.14524 1.14742 1.1489 1.14942 1.12576 1.12576 1.12576 1.12577
          1.12599 1.12599 1.12599 1.12599 1.12604 1.12821 1.12836 1.12866 1.12913 1.12976 1.13058 1.1316
          1.13282 1.13424 1.13585 1.13761 1.13943 1.14118 1.14265 1.14364 1.14399 1.12566 1.12566 1.12566
          1.12567 1.12598 1.12599 1.12599 1.12599 1.12603 1.12778 1.12791 1.12817 1.12855 1.12908 1.12976
          1.13059 1.13157 1.13269 1.13394 1.13527 1.13661 1.13785 1.13887 1.13954 1.13978 1.12555 1.12555
          1.12555 1.12555 1.12598 1.12599 1.12599 1.12599 1.12602 1.12737 1.12748 1.12769 1.12801 1.12844
          1.129 1.12966 1.13044 1.13132 1.13228 1.13328 1.13426 1.13515 1.13587 1.13634 1.1365 1.12541
          1.12542 1.12542 1.12542 1.12597 1.12599 1.12599 1.12599 1.12601 1.12697 1.12706 1.12723 1.1275
          1.12786 1.1283 1.12884 1.12945 1.13014 1.13087 1.13163 1.13235 1.133 1.13351 1.13384 1.13396
          1.12526 1.12526 1.12526 1.12527 1.12597 1.12599 1.12599 1.12599 1.12599 1.12658 1.12666 1.12681
          1.12703 1.12732 1.12768 1.12811 1.1286 1.12914 1.1297 1.13028 1.13082 1.1313 1.13167 1.13191
          1.13199 1.12509 1.12509 1.12509 1.12509 1.12596 1.12599 1.12599 1.12599 1.12598 1.12619 1.12627
          1.1264 1.12659 1.12684 1.12713 1.12748 1.12788 1.12831 1.12875 1.1292 1.12961 1.12998 1.13026
          1.13044 1.1305 1.12488 1.12489 1.1249 1.12488 1.12593 1.12596 1.12597 1.12597 1.12595 1.1258
          1.1259 1.12602 1.12619 1.1264 1.12666 1.12695 1.12728 1.12764 1.128 1.12836 1.1287 1.12898
          1.12921 1.12935 1.1294 1.12464 1.12466 1.12469 1.12481 1.12485 1.12499 1.1251 1.1252 1.1253
          1.12545 1.12555 1.12567 1.12583 1.12602 1.12625 1.12651 1.1268 1.12712 1.12743 1.12775 1.12803
          1.12828 1.12847 1.12859 1.12863 1.12436 1.12437 1.12442 1.1245 1.12458 1.12468 1.12478 1.12489
          1.125 1.12511 1.12522 1.12535 1.1255 1.12568 1.1259 1.12616 1.12644 1.12673 1.12704 1.12733
          1.12761 1.12784 1.12802 1.12813 1.12817
        </DataArray>
        <DataArray type="Float32" Name="saturation_l" NumberOfComponents="1" format="ascii">
          0 0 0 0 0 0 0 0 0 0 0 0
          0 0 0 0 0 0 0 0 0 0 0 0
          0 0 0 0 0 0 0 0 0 0 0 0
          0 0 0 0 0 0 0 0 0 1.67477e-05 0.0998192 0.050318
          0.987577 0.960087 0 0 0 0 0 0 0 0 0 0
          0 0 0 0 0 0 0 0 0 0 0 0
          0 0.0395628 0.953774 0 0 0 0 0 0 0 0 0
          0 0 0 0 0 0 0 0 0 0 0 0
          0 0 0.0297756 0.949842 0 0 0 0 0 0 0 0
          0 0 0 0 0 0 0 0 0 0 0 0
          0 0 0 0.00166001 0.411767 0 0 0 0 0 0 0
          0 0 0 0 0 0 0 0 0 0 0 0
          0 0 0 0 0 0 0 0 0 0 0 0
          0 0 0 0 0 0 0 0 0 0 0 0
          0 0 0 0 0 0 0 0 0 0 0 0
          0 0 0 0 0 0 0 0 0 0 0 0
          0 0 0 0 0 0 0 0 0 0 0 0
          0 0 0 0 0 0 0 0 0 0 0 0
          0 0 0 0 0 0 0 0 0 0 0 0
          0 0 0 0 0 0 0 0 0 0 0 0
          0 0 0 0 0 0 0 0 0 0 0 0
          0 0 0 0 0 0 0 0 0 0 0 0
          0 0 0 0 0 0 0 0 0 0 0 0
          0 0 0 0 0 0 0 0 0 0 0 0
          0 0 0 0 0 0 0 0 0 0 0 0
          0 0 0 0 0 0 0 0 0 0 0 0
          0 0 0 0 0 0 0 0 0 0 0 0
          0 0 0 0 0 0 0 0 0 0 0 0
          0 0 0 0 0 0 0 0 0 0 0 0
          0 0 0 0 0 0 0 0 0 0 0 0
          0 0 0 0 0 0 0 0 0 0 0 0
          0 0 0 0 0 0 0 0 0 0 0 0
          0 0 0 0 0 0 0 0 0 0 0 0
          0 0 0 0 0 0 0 0 0 0 0 0
          0 0 0 0 0 0 0 0 0 0 0 0
          0 0 0 0 0
        </DataArray>
        <DataArray type="Float32" Name="saturation_g" NumberOfComponents="1" format="ascii">
          1 1 1 1 1 1 1 1 1 1 1 1
          1 1 1 1 1 1 1 1 1 1 1 1
          1 1 1 1 1 1 1 1 1 1 1 1
          1 1 1 1 1 1 1 1 1 0.999983 0.900181 0.949682
          0.0124225 0.039913 1 1 1 1 1 1 1 1 1 1
          1 1 1 1 1 1 1 1 1 1 1 1
          1 0.960437 0.0462258 1 1 1 1 1 1 1 1 1
          1 1 1 1 1 1 1 1 1 1 1 1
          1 1 0.970224 0.0501578 1 1 1 1 1 1 1 1
          1 1 1 1 1 1 1 1 1 1 1 1
          1 1 1 0.99834 0.588233 1 1 1 1 1 1 1
          1 1 1 1 1 1 1 1 1 1 1 1
          1 1 1 1 1 1 1 1 1 1 1 1
          1 1 1 1 1 1 1 1 1 1 1 1
          1 1 1 1 1 1 1 1 1 1 1 1
          1 1 1 1 1 1 1 1 1 1 1 1
          1 1 1 1 1 1 1 1 1 1 1 1
          1 1 1 1 1 1 1 1 1 1 1 1
          1 1 1 1 1 1 1 1 1 1 1 1
          1 1 1 1 1 1 1 1 1 1 1 1
          1 1 1 1 1 1 1 1 1 1 1 1
          1 1 1 1 1 1 1 1 1 1 1 1
          1 1 1 1 1 1 1 1 1 1 1 1
          1 1 1 1 1 1 1 1 1 1 1 1
          1 1 1 1 1 1 1 1 1 1 1 1
          1 1 1 1 1 1 1 1 1 1 1 1
          1 1 1 1 1 1 1 1 1 1 1 1
          1 1 1 1 1 1 1 1 1 1 1 1
          1 1 1 1 1 1 1 1 1 1 1 1
          1 1 1 1 1 1 1 1 1 1 1 1
          1 1 1 1 1 1 1 1 1 1 1 1
          1 1 1 1 1 1 1 1 1 1 1 1
          1 1 1 1 1 1 1 1 1 1 1 1
          1 1 1 1 1 1 1 1 1 1 1 1
          1 1 1 1 1 1 1 1 1 1 1 1
          1 1 1 1 1
        </DataArray>
        <DataArray type="Float32" Name="relativePerm_l" NumberOfComponents="1" format="ascii">
          0 0 0 0 0 0 0 0 0 0 0 0
          0 0 0 0 0 0 0 0 0 0 0 0
          0 0 0 0 0 0 0 0 0 0 0 0
          0 0 0 0 0 0 0 0 0 2.49332e-09 0.0775869 0.0253356
          0.998586 0.984427 0 0 0 0 0 0 0 0 0 0
          0 0 0 0 0 0 0 0 0 0 0 0
          0 0.0152892 0.978811 0 0 0 0 0 0 0 0 0
          0 0 0 0 0 0 0 0 0 0 0 0
          0 0 0.00846743 0.974833 0 0 0 0 0 0 0 0
          0 0 0 0 0 0 0 0 0 0 0 0
          0 0 0 2.45962e-05 0.406865 0 0 0 0 0 0 0
          0 0 0 0 0 0 0 0 0 0 0 0
          0 0 0 0 0 0 0 0 0 0 0 0
          0 0 0 0 0 0 0 0 0 0 0 0
          0 0 0 0 0 0 0 0 0 0 0 0
          0 0 0 0 0 0 0 0 0 0 0 0
          0 0 0 0 0 0 0 0 0 0 0 0
          0 0 0 0 0 0 0 0 0 0 0 0
          0 0 0 0 0 0 0 0 0 0 0 0
          0 0 0 0 0 0 0 0 0 0 0 0
          0 0 0 0 0 0 0 0 0 0 0 0
          0 0 0 0 0 0 0 0 0 0 0 0
          0 0 0 0 0 0 0 0 0 0 0 0
          0 0 0 0 0 0 0 0 0 0 0 0
          0 0 0 0 0 0 0 0 0 0 0 0
          0 0 0 0 0 0 0 0 0 0 0 0
          0 0 0 0 0 0 0 0 0 0 0 0
          0 0 0 0 0 0 0 0 0 0 0 0
          0 0 0 0 0 0 0 0 0 0 0 0
          0 0 0 0 0 0 0 0 0 0 0 0
          0 0 0 0 0 0 0 0 0 0 0 0
          0 0 0 0 0 0 0 0 0 0 0 0
          0 0 0 0 0 0 0 0 0 0 0 0
          0 0 0 0 0 0 0 0 0 0 0 0
          0 0 0 0 0 0 0 0 0 0 0 0
          0 0 0 0 0
        </DataArray>
        <DataArray type="Float32" Name="relativePerm_g" NumberOfComponents="1" format="ascii">
          1 1 1 1 1 1 1 1 1 1 1 1
          1 1 1 1 1 1 1 1 1 1 1 1
          1 1 1 1 1 1 1 1 1 1 1 1
          1 1 1 1 1 1 1 1 1 1 0.922413 0.974664
          0.00141432 0.0155734 1 1 1 1 1 1 1 1 1 1
          1 1 1 1 1 1 1 1 1 1 1 1
          1 0.984711 0.0211891 1 1 1 1 1 1 1 1 1
          1 1 1 1 1 1 1 1 1 1 1 1
          1 1 0.991533 0.0251666 1 1 1 1 1 1 1 1
          1 1 1 1 1 1 1 1 1 1 1 1
          1 1 1 0.999975 0.593135 1 1 1 1 1 1 1
          1 1 1 1 1 1 1 1 1 1 1 1
          1 1 1 1 1 1 1 1 1 1 1 1
          1 1 1 1 1 1 1 1 1 1 1 1
          1 1 1 1 1 1 1 1 1 1 1 1
          1 1 1 1 1 1 1 1 1 1 1 1
          1 1 1 1 1 1 1 1 1 1 1 1
          1 1 1 1 1 1 1 1 1 1 1 1
          1 1 1 1 1 1 1 1 1 1 1 1
          1 1 1 1 1 1 1 1 1 1 1 1
          1 1 1 1 1 1 1 1 1 1 1 1
          1 1 1 1 1 1 1 1 1 1 1 1
          1 1 1 1 1 1 1 1 1 1 1 1
          1 1 1 1 1 1 1 1 1 1 1 1
          1 1 1 1 1 1 1 1 1 1 1 1
          1 1 1 1 1 1 1 1 1 1 1 1
          1 1 1 1 1 1 1 1 1 1 1 1
          1 1 1 1 1 1 1 1 1 1 1 1
          1 1 1 1 1 1 1 1 1 1 1 1
          1 1 1 1 1 1 1 1 1 1 1 1
          1 1 1 1 1 1 1 1 1 1 1 1
          1 1 1 1 1 1 1 1 1 1 1 1
          1 1 1 1 1 1 1 1 1 1 1 1
          1 1 1 1 1 1 1 1 1 1 1 1
          1 1 1 1 1 1 1 1 1 1 1 1
          1 1 1 1 1
        </DataArray>
        <DataArray type="Float32" Name="porosity" NumberOfComponents="1" format="ascii">
          0.3 0.3 0.3 0.3 0.3 0.3 0.3 0.3 0.3 0.3 0.3 0.3
          0.3 0.3 0.3 0.3 0.3 0.3 0.3 0.3 0.3 0.3 0.3 0.3
          0.3 0.3 0.3 0.3 0.3 0.3 0.3 0.3 0.3 0.3 0.3 0.3
          0.3 0.3 0.3 0.3 0.3 0.3 0.3 0.3 0.3 0.3 0.3 0.3
          0.3 0.3 0.3 0.3 0.3 0.3 0.3 0.3 0.3 0.3 0.3 0.3
          0.3 0.3 0.3 0.3 0.3 0.3 0.3 0.3 0.3 0.3 0.3 0.3
          0.3 0.3 0.3 0.3 0.3 0.3 0.3 0.3 0.3 0.3 0.3 0.3
          0.3 0.3 0.3 0.3 0.3 0.3 0.3 0.3 0.3 0.3 0.3 0.3
          0.3 0.3 0.3 0.3 0.3 0.3 0.3 0.3 0.3 0.3 0.3 0.3
          0.3 0.3 0.3 0.3 0.3 0.3 0.3 0.3 0.3 0.3 0.3 0.3
          0.3 0.3 0.3 0.3 0.3 0.3 0.3 0.3 0.3 0.3 0.3 0.3
          0.3 0.3 0.3 0.3 0.3 0.3 0.3 0.3 0.3 0.3 0.3 0.3
          0.3 0.3 0.3 0.3 0.3 0.3 0.3 0.3 0.3 0.3 0.3 0.3
          0.3 0.3 0.3 0.3 0.3 0.3 0.3 0.3 0.3 0.3 0.3 0.3
          0.3 0.3 0.3 0.3 0.3 0.3 0.3 0.3 0.3 0.3 0.3 0.3
          0.3 0.3 0.3 0.3 0.3 0.3 0.3 0.3 0.3 0.3 0.3 0.3
          0.3 0.3 0.3 0.3 0.3 0.3 0.3 0.3 0.3 0.3 0.3 0.3
          0.3 0.3 0.3 0.3 0.3 0.3 0.3 0.3 0.3 0.3 0.3 0.3
          0.3 0.3 0.3 0.3 0.3 0.3 0.3 0.3 0.3 0.3 0.3 0.3
          0.3 0.3 0.3 0.3 0.3 0.3 0.3 0.3 0.3 0.3 0.3 0.3
          0.3 0.3 0.3 0.3 0.3 0.3 0.3 0.3 0.3 0.3 0.3 0.3
          0.3 0.3 0.3 0.3 0.3 0.3 0.3 0.3 0.3 0.3 0.3 0.3
          0.3 0.3 0.3 0.3 0.3 0.3 0.3 0.3 0.3 0.3 0.3 0.3
          0.3 0.3 0.3 0.3 0.3 0.3 0.3 0.3 0.3 0.3 0.3 0.3
          0.3 0.3 0.3 0.3 0.3 0.3 0.3 0.3 0.3 0.3 0.3 0.3
          0.3 0.3 0.3 0.3 0.3 0.3 0.3 0.3 0.3 0.3 0.3 0.3
          0.3 0.3 0.3 0.3 0.3 0.3 0.3 0.3 0.3 0.3 0.3 0.3
          0.3 0.3 0.3 0.3 0.3 0.3 0.3 0.3 0.3 0.3 0.3 0.3
          0.3 0.3 0.3 0.3 0.3 0.3 0.3 0.3 0.3 0.3 0.3 0.3
          0.3 0.3 0.3 0.3 0.3 0.3 0.3 0.3 0.3 0.3 0.3 0.3
          0.3 0.3 0.3 0.3 0.3 0.3 0.3 0.3 0.3 0.3 0.3 0.3
          0.3 0.3 0.3 0.3 0.3 0.3 0.3 0.3 0.3 0.3 0.3 0.3
          0.3 0.3 0.3 0.3 0.3 0.3 0.3 0.3 0.3 0.3 0.3 0.3
          0.3 0.3 0.3 0.3 0.3 0.3 0.3 0.3 0.3 0.3 0.3 0.3
          0.3 0.3 0.3 0.3 0.3 0.3 0.3 0.3 0.3 0.3 0.3 0.3
          0.3 0.3 0.3 0.3 0.3
        </DataArray>
        <DataArray type="Float32" Name="moleFrac_l^H2O" NumberOfComponents="1" format="ascii">
          0.251458 0.251556 0.251449 0.251504 0.251601 0.251542 0.251625 0.251559 0.251445 0.251439 0.251436 0.251432
          0.251436 0.251432 0.251437 0.251432 0.25147 0.251464 0.252661 0.252582 0.252721 0.252646 0.252854 0.252778
          0.253065 0.252987 0.253363 0.253281 0.253764 0.253677 0.254284 0.25419 0.254947 0.254843 0.255776 0.25566
          0.256809 0.256679 0.258286 0.258171 0.263233 0.264239 0.298924 0.327123 0.52172 0.999988 0.999988 0.999988
          0.999982 0.999985 0.251442 0.251476 0.251501 0.251513 0.251436 0.251432 0.251432 0.251432 0.25146 0.252498
          0.252561 0.25269 0.252892 0.253176 0.253557 0.25405 0.254676 0.255459 0.256431 0.257806 0.262915 0.316999
          0.942838 0.999988 0.999985 0.251438 0.251458 0.251473 0.251481 0.251435 0.251432 0.251432 0.251432 0.251457
          0.25241 0.25247 0.252592 0.252782 0.25305 0.253408 0.253869 0.254453 0.255179 0.256075 0.257268 0.260638
          0.290504 0.583845 0.999988 0.999986 0.251438 0.251445 0.251453 0.251457 0.251433 0.251432 0.251432 0.251432
          0.251454 0.252317 0.252372 0.252486 0.252662 0.252908 0.253235 0.253656 0.254184 0.254837 0.255635 0.256633
          0.258654 0.274016 0.421012 0.999988 0.999988 0.251431 0.251432 0.251435 0.251437 0.251433 0.251432 0.251432
          0.251432 0.251451 0.25222 0.252271 0.252374 0.252532 0.252754 0.253046 0.25342 0.253885 0.254454 0.255138
          0.255953 0.257 0.259968 0.284919 0.451503 0.442902 0.251417 0.251417 0.251419 0.25142 0.251432 0.251432
          0.251432 0.251432 0.251448 0.252122 0.252167 0.252259 0.252399 0.252594 0.252849 0.253172 0.253571 0.254051
          0.254619 0.255276 0.25602 0.256947 0.259676 0.277821 0.282128 0.2514 0.2514 0.251401 0.251401 0.251431
          0.251432 0.251432 0.251432 0.251445 0.252024 0.252063 0.252143 0.252264 0.252432 0.25265 0.252924 0.253257
          0.253652 0.254109 0.254623 0.255175 0.255736 0.256324 0.257725 0.258357 0.251381 0.251381 0.251381 0.251381
          0.251431 0.251432 0.251432 0.251432 0.251443 0.251927 0.251961 0.252028 0.252132 0.252274 0.252456 0.252683
          0.252956 0.253274 0.253634 0.254026 0.254433 0.254823 0.255156 0.255419 0.255524 0.251358 0.251358 0.251359
          0.251359 0.25143 0.251432 0.251432 0.251432 0.25144 0.251831 0.25186 0.251917 0.252004 0.252122 0.252273
          0.252458 0.252677 0.252928 0.253207 0.253504 0.253802 0.254079 0.254307 0.254459 0.254513 0.251333 0.251333
          0.251333 0.251334 0.251429 0.251432 0.251432 0.251432 0.251438 0.251739 0.251763 0.251811 0.251883 0.25198
          0.252103 0.252252 0.252426 0.252623 0.252837 0.25306 0.253279 0.253477 0.253638 0.253743 0.253779 0.251303
          0.251303 0.251304 0.251304 0.251428 0.251432 0.251432 0.251432 0.251435 0.25165 0.25167 0.25171 0.251769
          0.251848 0.251948 0.252067 0.252205 0.252358 0.252522 0.25269 0.252852 0.252996 0.253111 0.253185 0.253211
          0.251269 0.251269 0.251269 0.25127 0.251427 0.251432 0.251432 0.251432 0.251433 0.251563 0.25158 0.251614
          0.251663 0.251728 0.251809 0.251905 0.252014 0.252134 0.252261 0.252388 0.25251 0.252616 0.2527 0.252754
          0.252772 0.25123 0.25123 0.251231 0.25123 0.251425 0.251432 0.251432 0.251432 0.25143 0.251477 0.251493
          0.251523 0.251566 0.25162 0.251687 0.251765 0.251853 0.251949 0.252049 0.252148 0.252241 0.252322 0.252385
          0.252425 0.252439 0.251185 0.251186 0.251189 0.251184 0.251419 0.251426 0.251427 0.251427 0.251423 0.251389
          0.251411 0.251439 0.251476 0.251523 0.251581 0.251647 0.25172 0.251799 0.251881 0.251961 0.252036 0.2521
          0.25215 0.252182 0.252192 0.251131 0.251134 0.251142 0.251169 0.251177 0.251207 0.251232 0.251254 0.251278
          0.251312 0.251333 0.25136 0.251395 0.251438 0.251489 0.251548 0.251613 0.251683 0.251754 0.251824 0.251888
          0.251943 0.251986 0.252012 0.252021 0.251067 0.25107 0.251081 0.251098 0.251116 0.251139 0.251162 0.251185
          0.251209 0.251235 0.25126 0.251288 0.251321 0.251363 0.251412 0.251469 0.251531 0.251598 0.251666 0.251732
          0.251793 0.251845 0.251885 0.25191 0.251919
        </DataArray>
        <DataArray type="Float32" Name="moleFrac_l^N2" NumberOfComponents="1" format="ascii">
          1.14733e-05 1.14778e-05 1.14729e-05 1.14754e-05 1.14798e-05 1.14771e-05 1.14809e-05 1.14779e-05 1.14727e-05 1.14724e-05 1.14723e-05 1.14721e-05
          1.14723e-05 1.14721e-05 1.14723e-05 1.14721e-05 1.14739e-05 1.14736e-05 1.15282e-05 1.15246e-05 1.15309e-05 1.15275e-05 1.1537e-05 1.15335e-05
          1.15466e-05 1.1543e-05 1.15602e-05 1.15565e-05 1.15785e-05 1.15745e-05 1.16022e-05 1.1598e-05 1.16325e-05 1.16278e-05 1.16703e-05 1.1665e-05
          1.17169e-05 1.1711e-05 1.17733e-05 1.17667e-05 1.18386e-05 1.18312e-05 1.18981e-05 1.18807e-05 1.1863e-05 1.16621e-05 1.15223e-05 1.18425e-05
          1.8183e-05 1.54145e-05 1.14726e-05 1.14741e-05 1.14752e-05 1.14758e-05 1.14723e-05 1.14721e-05 1.14721e-05 1.14721e-05 1.14734e-05 1.15208e-05
          1.15236e-05 1.15295e-05 1.15387e-05 1.15517e-05 1.1569e-05 1.15916e-05 1.16201e-05 1.16558e-05 1.16998e-05 1.17533e-05 1.18164e-05 1.18709e-05
          1.16828e-05 1.17541e-05 1.4954e-05 1.14724e-05 1.14733e-05 1.1474e-05 1.14743e-05 1.14722e-05 1.14721e-05 1.14721e-05 1.14721e-05 1.14732e-05
          1.15167e-05 1.15195e-05 1.1525e-05 1.15337e-05 1.15459e-05 1.15623e-05 1.15833e-05 1.16099e-05 1.16431e-05 1.16838e-05 1.17333e-05 1.17925e-05
          1.18524e-05 1.18021e-05 1.16286e-05 1.4321e-05 1.14724e-05 1.14727e-05 1.14731e-05 1.14732e-05 1.14722e-05 1.14721e-05 1.14721e-05 1.14721e-05
          1.14731e-05 1.15125e-05 1.1515e-05 1.15202e-05 1.15282e-05 1.15395e-05 1.15544e-05 1.15736e-05 1.15977e-05 1.16275e-05 1.16638e-05 1.17076e-05
          1.17598e-05 1.18169e-05 1.18307e-05 1.17487e-05 1.15651e-05 1.1472e-05 1.14721e-05 1.14723e-05 1.14724e-05 1.14721e-05 1.14721e-05 1.14721e-05
          1.14721e-05 1.1473e-05 1.15081e-05 1.15104e-05 1.15151e-05 1.15223e-05 1.15324e-05 1.15458e-05 1.15628e-05 1.1584e-05 1.161e-05 1.16412e-05
          1.16782e-05 1.17215e-05 1.17711e-05 1.18197e-05 1.17838e-05 1.17858e-05 1.14714e-05 1.14714e-05 1.14715e-05 1.14715e-05 1.14721e-05 1.14721e-05
          1.14721e-05 1.14721e-05 1.14728e-05 1.15036e-05 1.15057e-05 1.15098e-05 1.15162e-05 1.15251e-05 1.15368e-05 1.15515e-05 1.15697e-05 1.15916e-05
          1.16175e-05 1.16475e-05 1.16812e-05 1.17175e-05 1.1751e-05 1.17664e-05 1.1772e-05 1.14706e-05 1.14707e-05 1.14707e-05 1.14707e-05 1.14721e-05
          1.14721e-05 1.14721e-05 1.14721e-05 1.14727e-05 1.14991e-05 1.15009e-05 1.15045e-05 1.15101e-05 1.15177e-05 1.15277e-05 1.15402e-05 1.15554e-05
          1.15734e-05 1.15943e-05 1.16177e-05 1.16429e-05 1.16682e-05 1.16904e-05 1.17051e-05 1.17102e-05 1.14698e-05 1.14698e-05 1.14698e-05 1.14698e-05
          1.1472e-05 1.14721e-05 1.14721e-05 1.14721e-05 1.14726e-05 1.14947e-05 1.14962e-05 1.14993e-05 1.1504e-05 1.15105e-05 1.15188e-05 1.15292e-05
          1.15416e-05 1.15561e-05 1.15726e-05 1.15905e-05 1.1609e-05 1.16268e-05 1.16418e-05 1.16519e-05 1.16555e-05 1.14687e-05 1.14688e-05 1.14688e-05