<?xml version="1.0"?>
<VTKFile type="UnstructuredGrid" version="0.1" byte_order="LittleEndian">
  <UnstructuredGrid>
    <Piece NumberOfCells="384" NumberOfPoints="425">
      <PointData Scalars="pressure_l">
        <DataArray type="Float32" Name="pressure_l" NumberOfComponents="1" format="ascii">
          100011 100048 100005 100028 100066 100043 100076 100050 100005 100003 100002 100000
          100002 100000 100002 100000 100025 100022 100895 100860 100942 100909 101043 101009
          101197 101162 101408 101371 101681 101641 102018 101975 102425 102378 102904 102852
          103460 103401 104099 104029 104834 104744 105692 105568 106716 106563 108772 108643
          188383 184674 100003 100017 100027 100031 100002 100000 100000 100000 100021 100819
          100867 100965 101114 101317 101580 101904 102294 102753 103283 103883 104550 105279
          106078 107710 184350 100002 100010 100016 100019 100001 100000 100000 100000 100019
          100771 100817 100911 101053 101248 101498 101807 102178 102614 103114 103678 104294
          104927 105438 105874 183544 100001 100004 100008 100009 100001 100000 100000 100000
          100017 100716 100760 100848 100982 101164 101398 101687 102034 102439 102904 103429
          104008 104625 105181 103989 168748 99998.7 99999.5 100001 100002 100000 100000 100000
          100000 100016 100657 100698 100779 100902 101070 101285 101550 101866 102236 102660
          103139 103680 104311 105206 108498 100299 99993.5 99993.8 99994.3 99994.7 100000 100000
          100000 100000 100014 100594 100631 100705 100816 100968 101162 101400 101683 102012
          102388 102812 103287 103838 104526 104610 104258 99987.1 99987.2 99987.4 99987.6 99999.7
          100000 100000 100000 100012 100529 100562 100628 100727 100862 101034 101243 101491
          101777 102101 102458 102846 103250 103585 103732 103745 99979.6 99979.7 99979.8 99980
          99999.5 100000 100000 100000 100010 100464 100493 100551 100638 100756 100905 101085
          101298 101541 101811 102103 102403 102689 102916 103050 103091 99971 99971.1 99971.2
          99971.4 99999.2 100000 100000 100000 100008 100399 100425 100475 100550 100651 100779
          100933 101112 101314 101534 101766 101997 102208 102375 102480 102515 99961.2 99961.3
          99961.4 99961.6 99998.9 100000 100000 100000 100007 100337 100359 100402 100466 100553
          100661 100789 100938 101104 101282 101465 101642 101801 101926 102006 102034 99950
          99950 99950.2 99950.4 99998.4 100000 100000 100000 100005 100277 100296 100333 100388
          100462 100552 100660 100782 100917 101060 101204 101341 101463 101558 101619 101639
          99937 99937.1 99937.4 99937.7 99997.9 100000 100000 100000 100004 100220 100237 100270
          100317 100380 100456 100546 100647 100757 100872 100986 101094 101188 101262 101308
          101324 99922.2 99922.5 99923 99923.3 99997.3 99999.9 100000 100000 100002 100166 100182
          100212 100254 100309 100374 100450 100535 100626 100720 100813 100899 100974 101032
          101068 101081 99904.9 99905.7 99907.9 99907.2 99995 99998.1 99998.6 99999 100000 100113
          100130 100161 100200 100249 100307 100373 100447 100524 100604 100682 100754 100816
          100863 100893 100904 99884.1 99885.6 99890.4 99903.9 99916 99937.7 99960.1 99985.9 100019
          100050 100085 100118 100156 100202 100256 100316 100382 100452 100524 100593 100657
          100711 100753 100779 100788 99859 99860.8 99866.8 99877.4 99891.8 99910.5 99932.6 99958.2
          99987.2 100018 100050 100085 100123 100168 100220 100279 100343 100410 100478 100545
          100606 100658 100697 100722 100731
        </DataArray>
        <DataArray type="Float32" Name="pressure_g" NumberOfComponents="1" format="ascii">
          100011 100048 100005 100028 100066 100043 100076 100050 100005 100003 100002 100000
          100002 100000 100002 100000 100025 100022 100895 100860 100942 100909 101043 101009
          101197 101162 101408 101371 101681 101641 102018 101975 102425 102378 102904 102852
          103460 103401 104099 104029 104834 104744 105692 105568 106716 106563 108772 108643
          188383 184674 100003 100017 100027 100031 100002 100000 100000 100000 100021 100819
          100867 100965 101114 101317 101580 101904 102294 102753 103283 103883 104550 105279
          106078 107710 184350 100002 100010 100016 100019 100001 100000 100000 100000 100019
          100771 100817 100911 101053 101248 101498 101807 102178 102614 103114 103678 104294
          104927 105438 105874 183544 100001 100004 100008 100009 100001 100000 100000 100000
          100017 100716 100760 100848 100982 101164 101398 101687 102034 102439 102904 103429
          104008 104625 105181 103989 168748 99998.7 99999.5 100001 100002 100000 100000 100000
          100000 100016 100657 100698 100779 100902 101070 101285 101550 101866 102236 102660
          103139 103680 104311 105206 108498 100299 99993.5 99993.8 99994.3 99994.7 100000 100000
          100000 100000 100014 100594 100631 100705 100816 100968 101162 101400 101683 102012
          102388 102812 103287 103838 104526 104610 104258 99987.1 99987.2 99987.4 99987.6 99999.7
          100000 100000 100000 100012 100529 100562 100628 100727 100862 101034 101243 101491
          101777 102101 102458 102846 103250 103585 103732 103745 99979.6 99979.7 99979.8 99980
          99999.5 100000 100000 100000 100010 100464 100493 100551 100638 100756 100905 101085
          101298 101541 101811 102103 102403 102689 102916 103050 103091 99971 99971.1 99971.2
          99971.4 99999.2 100000 100000 100000 100008 100399 100425 100475 100550 100651 100779
          100933 101112 101314 101534 101766 101997 102208 102375 102480 102515 99961.2 99961.3
          99961.4 99961.6 99998.9 100000 100000 100000 100007 100337 100359 100402 100466 100553
          100661 100789 100938 101104 101282 101465 101642 101801 101926 102006 102034 99950
          99950 99950.2 99950.4 99998.4 100000 100000 100000 100005 100277 100296 100333 100388
          100462 100552 100660 100782 100917 101060 101204 101341 101463 101558 101619 101639
          99937 99937.1 99937.4 99937.7 99997.9 100000 100000 100000 100004 100220 100237 100270
          100317 100380 100456 100546 100647 100757 100872 100986 101094 101188 101262 101308
          101324 99922.2 99922.5 99923 99923.3 99997.3 99999.9 100000 100000 100002 100166 100182
          100212 100254 100309 100374 100450 100535 100626 100720 100813 100899 100974 101032
          101068 101081 99904.9 99905.7 99907.9 99907.2 99995 99998.1 99998.6 99999 100000 100113
          100130 100161 100200 100249 100307 100373 100447 100524 100604 100682 100754 100816
          100863 100893 100904 99884.1 99885.6 99890.4 99903.9 99916 99937.7 99960.1 99985.9 100019
          100050 100085 100118 100156 100202 100256 100316 100382 100452 100524 100593 100657
          100711 100753 100779 100788 99859 99860.8 99866.8 99877.4 99891.8 99910.5 99932.6 99958.2
          99987.2 100018 100050 100085 100123 100168 100220 100279 100343 100410 100478 100545
          100606 100658 100697 100722 100731
        </DataArray>
        <DataArray type="Float32" Name="density_l" NumberOfComponents="1" format="ascii">
          997.068 997.068 997.068 997.068 997.068 997.068 997.068 997.068 997.068 997.068 997.068 997.068
          997.068 997.068 997.068 997.068 997.068 997.068 997.068 997.068 997.068 997.068 997.068 997.068
          997.068 997.068 997.068 997.068 997.069 997.069 997.069 997.069 997.069 997.069 997.069 997.069
          997.069 997.069 997.069 997.069 997.068 997.068 997.062 997.063 997.057 997.057 997.058 997.058
          997.099 997.097 997.068 997.068 997.068 997.068 997.068 997.068 997.068 997.068 997.068 997.068
          997.068 997.068 997.068 997.068 997.068 997.069 997.069 997.069 997.069 997.069 997.068 997.063
          997.057 997.058 997.097 997.068 997.068 997.068 997.068 997.068 997.068 997.068 997.068 997.068
          997.068 997.068 997.068 997.068 997.068 997.068 997.069 997.069 997.069 997.069 997.069 997.069
          997.064 997.057 997.057 997.097 997.068 997.068 997.068 997.068 997.068 997.068 997.068 997.068
          997.068 997.068 997.068 997.068 997.068 997.068 997.068 997.069 997.069 997.069 997.069 997.069
          997.069 997.065 997.057 997.056 997.089 997.068 997.068 997.068 997.068 997.068 997.068 997.068
          997.068 997.068 997.068 997.068 997.068 997.068 997.068 997.068 997.068 997.069 997.069 997.069
          997.069 997.069 997.068 997.061 997.058 997.054 997.068 997.068 997.068 997.068 997.068 997.068
          997.068 997.068 997.068 997.068 997.068 997.068 997.068 997.068 997.068 997.068 997.069 997.069
          997.069 997.069 997.069 997.069 997.067 997.061 997.066 997.068 997.068 997.068 997.068 997.068
          997.068 997.068 997.068 997.068 997.068 997.068 997.068 997.068 997.068 997.068 997.068 997.068
          997.069 997.069 997.069 997.069 997.069 997.069 997.068 997.069 997.068 997.068 997.068 997.068
          997.068 997.068 997.068 997.068 997.068 997.068 997.068 997.068 997.068 997.068 997.068 997.068
          997.068 997.068 997.069 997.069 997.069 997.069 997.069 997.069 997.069 997.068 997.068 997.068
          997.068 997.068 997.068 997.068 997.068 997.068 997.068 997.068 997.068 997.068 997.068 997.068
          997.068 997.068 997.068 997.068 997.069 997.069 997.069 997.069 997.069 997.069 997.068 997.068
          997.068 997.068 997.068 997.068 997.068 997.068 997.068 997.068 997.068 997.068 997.068 997.068
          997.068 997.068 997.068 997.068 997.068 997.068 997.069 997.069 997.069 997.069 997.069 997.068
          997.068 997.068 997.068 997.068 997.068 997.068 997.068 997.068 997.068 997.068 997.068 997.068
          997.068 997.068 997.068 997.068 997.068 997.068 997.068 997.068 997.068 997.068 997.069 997.069
          997.068 997.068 997.068 997.068 997.068 997.068 997.068 997.068 997.068 997.068 997.068 997.068
          997.068 997.068 997.068 997.068 997.068 997.068 997.068 997.068 997.068 997.068 997.068 997.068
          997.068 997.068 997.068 997.068 997.068 997.068 997.068 997.068 997.068 997.068 997.068 997.068
          997.068 997.068 997.068 997.068 997.068 997.068 997.068 997.068 997.068 997.068 997.068 997.068
          997.068 997.068 997.068 997.068 997.068 997.068 997.068 997.068 997.068 997.068 997.068 997.068
          997.068 997.068 997.068 997.068 997.068 997.068 997.068 997.068 997.068 997.068 997.068 997.068
          997.068 997.068 997.068 997.068 997.068 997.068 997.068 997.068 997.068 997.068 997.068 997.068
          997.068 997.068 997.068 997.068 997.068 997.068 997.068 997.068 997.068 997.068 997.068 997.068
          997.068 997.068 997.068 997.068 997.068 997.068 997.068 997.068 997.068 997.068 997.068 997.068
          997.068 997.068 997.068 997.068 997.068 997.068 997.068 997.068 997.068 997.068 997.068 997.068
          997.068 997.068 997.068 997.068 997.068
        </DataArray>
        <DataArray type="Float32" Name="density_g" NumberOfComponents="1" format="ascii">
          1.12612 1.12655 1.12606 1.12631 1.12675 1.12648 1.12686 1.12656 1.12606 1.12603 1.12602 1.126
          1.12602 1.126 1.12602 1.12601 1.12629 1.12626 1.13608 1.13569 1.13661 1.13624 1.13774 1.13737
          1.13948 1.13909 1.14186 1.14145 1.14493 1.14448 1.14873 1.14825 1.15331 1.15278 1.1587 1.15811
          1.16496 1.16429 1.17211 1.17132 1.17996 1.17898 1.18741 1.1861 1.19319 1.19147 1.21643 1.21497
          2.11607 2.07415 1.12604 1.12619 1.1263 1.12636 1.12602 1.126 1.126 1.12601 1.12624 1.13522
          1.13577 1.13687 1.13854 1.14084 1.14379 1.14744 1.15184 1.15701 1.16296 1.16968 1.17688 1.18315
          1.18598 1.20443 2.0705 1.12602 1.12611 1.12618 1.12621 1.12601 1.126 1.126 1.126 1.12622
          1.13468 1.1352 1.13626 1.13786 1.14005 1.14287 1.14635 1.15053 1.15543 1.16107 1.16739 1.1741
          1.17969 1.17875 1.18368 2.06115 1.12602 1.12605 1.12609 1.12611 1.12601 1.126 1.126 1.126
          1.1262 1.13407 1.13456 1.13555 1.13706 1.13911 1.14175 1.145 1.1489 1.15347 1.15871 1.1646
          1.17096 1.17657 1.17585 1.16238 1.89419 1.12599 1.126 1.12601 1.12602 1.12601 1.126 1.126
          1.126 1.12618 1.1334 1.13386 1.13477 1.13616 1.13805 1.14047 1.14345 1.14702 1.15118 1.15595
          1.16135 1.1674 1.17408 1.18133 1.21333 1.12068 1.12593 1.12593 1.12594 1.12594 1.126 1.126
          1.126 1.126 1.12616 1.13269 1.13311 1.13394 1.1352 1.1369 1.13909 1.14176 1.14495 1.14866
          1.1529 1.15766 1.16301 1.16914 1.17631 1.17464 1.17294 1.12586 1.12586 1.12586 1.12586 1.126
          1.126 1.126 1.126 1.12614 1.13196 1.13233 1.13307 1.13419 1.13571 1.13764 1.14 1.14279
          1.14602 1.14966 1.15369 1.15805 1.16259 1.1663 1.16765 1.16808 1.12577 1.12577 1.12578 1.12578
          1.126 1.126 1.126 1.126 1.12612 1.13123 1.13155 1.1322 1.13319 1.13451 1.13619 1.13823
          1.14062 1.14336 1.1464 1.14968 1.15307 1.15628 1.15884 1.16032 1.1608 1.12568 1.12568 1.12568
          1.12568 1.12599 1.126 1.126 1.126 1.1261 1.1305 1.13078 1.13135 1.1322 1.13334 1.13477
          1.1365 1.13852 1.1408 1.14328 1.14589 1.14849 1.15086 1.15275 1.15393 1.15433 1.12557 1.12557
          1.12557 1.12557 1.12599 1.126 1.126 1.126 1.12608 1.12979 1.13004 1.13053 1.13126 1.13223
          1.13344 1.13489 1.13657 1.13843 1.14043 1.14249 1.14449 1.14628 1.14769 1.14859 1.1489 1.12544
          1.12544 1.12544 1.12544 1.12599 1.126 1.126 1.126 1.12606 1.12912 1.12933 1.12975 1.13038
          1.1312 1.13222 1.13343 1.13481 1.13633 1.13793 1.13956 1.14111 1.14247 1.14354 1.14423 1.14446
          1.12529 1.12529 1.1253 1.1253 1.12598 1.126 1.126 1.126 1.12604 1.12848 1.12867 1.12904
          1.12958 1.13028 1.13114 1.13215 1.13329 1.13453 1.13582 1.13711 1.13832 1.13938 1.14021 1.14073
          1.14091 1.12513 1.12513 1.12514 1.12514 1.12597 1.126 1.126 1.126 1.12603 1.12787 1.12805
          1.12839 1.12887 1.12948 1.13022 1.13107 1.13203 1.13305 1.13411 1.13516 1.13613 1.13697 1.13762
          1.13803 1.13817 1.12493 1.12494 1.12497 1.12496 1.12595 1.12598 1.12599 1.12599 1.126 1.12727
          1.12747 1.12781 1.12826 1.12881 1.12946 1.13021 1.13103 1.13191 1.13281 1.13368 1.13449 1.13519
          1.13572 1.13606 1.13618 1.1247 1.12471 1.12477 1.12492 1.12506 1.1253 1.12555 1.12584 1.12622
          1.12656 1.12696 1.12733 1.12776 1.12828 1.12888 1.12956 1.13031 1.1311 1.1319 1.13268 1.1334
          1.13401 1.13448 1.13477 1.13487 1.12442 1.12443 1.1245 1.12462 1.12478 1.12499 1.12524 1.12553
          1.12586 1.12621 1.12657 1.12696 1.12739 1.12789 1.12848 1.12914 1.12986 1.13062 1.13139 1.13214
          1.13282 1.13341 1.13386 1.13414 1.13423
        </DataArray>
        <DataArray type="Float32" Name="saturation_l" NumberOfComponents="1" format="ascii">
          0 0 0 0 0 0 0 0 0 0 0 0
          0 0 0 0 0 0 0 0 0 0 0 0
          0 0 0 0 0 0 0 0 0 0 0 0
          0 0 0 0 0 0 0 0 0.00198075 0.00176259 0.422828 0.364981
          0.998546 0.999131 0 0 0 0 0 0 0 0 0 0
          0 0 0 0 0 0 0 0 0 0 0 0
          0.00133711 0.364759 0.999397 0 0 0 0 0 0 0 0 0
          0 0 0 0 0 0 0 0 0 0 0 0
          0 0.000286599 0.346342 1 0 0 0 0 0 0 0 0
          0 0 0 0 0 0 0 0 0 0 0 0
          0 0 1.22397e-05 0.215522 0.997148 0 0 0 0 0 0 0
          0 0 0 0 0 0 0 0 0 0 0 0
          0 0 0 0 0.000548592 0.0867869 0 0 0 0 0 0
          0 0 0 0 0 0 0 0 0 0 0 0
          0 0 0 0 0 0 0 0 0 0 0 0
          0 0 0 0 0 0 0 0 0 0 0 0
          0 0 0 0 0 0 0 0 0 0 0 0
          0 0 0 0 0 0 0 0 0 0 0 0
          0 0 0 0 0 0 0 0 0 0 0 0
          0 0 0 0 0 0 0 0 0 0 0 0
          0 0 0 0 0 0 0 0 0 0 0 0
          0 0 0 0 0 0 0 0 0 0 0 0
          0 0 0 0 0 0 0 0 0 0 0 0
          0 0 0 0 0 0 0 0 0 0 0 0
          0 0 0 0 0 0 0 0 0 0 0 0
          0 0 0 0 0 0 0 0 0 0 0 0
          0 0 0 0 0 0 0 0 0 0 0 0
          0 0 0 0 0 0 0 0 0 0 0 0
          0 0 0 0 0 0 0 0 0 0 0 0
          0 0 0 0 0 0 0 0 0 0 0 0
          0 0 0 0 0 0 0 0 0 0 0 0
          0 0 0 0 0 0 0 0 0 0 0 0
          0 0 0 0 0 0 0 0 0 0 0 0
          0 0 0 0 0 0 0 0 0 0 0 0
          0 0 0 0 0 0 0 0 0 0 0 0
          0 0 0 0 0
        </DataArray>
        <DataArray type="Float32" Name="saturation_g" NumberOfComponents="1" format="ascii">
          1 1 1 1 1 1 1 1 1 1 1 1
          1 1 1 1 1 1 1 1 1 1 1 1
          1 1 1 1 1 1 1 1 1 1 1 1
          1 1 1 1 1 1 1 1 0.998019 0.998237 0.577172 0.635019
          0.00145409 0.000869293 1 1 1 1 1 1 1 1 1 1
          1 1 1 1 1 1 1 1 1 1 1 1
          0.998663 0.635241 0.000603511 1 1 1 1 1 1 1 1 1
          1 1 1 1 1 1 1 1 1 1 1 1
          1 0.999713 0.653658 0 1 1 1 1 1 1 1 1
          1 1 1 1 1 1 1 1 1 1 1 1
          1 1 0.999988 0.784478 0.00285198 1 1 1 1 1 1 1
          1 1 1 1 1 1 1 1 1 1 1 1
          1 1 1 1 0.999451 0.913213 1 1 1 1 1 1
          1 1 1 1 1 1 1 1 1 1 1 1
          1 1 1 1 1 1 1 1 1 1 1 1
          1 1 1 1 1 1 1 1 1 1 1 1
          1 1 1 1 1 1 1 1 1 1 1 1
          1 1 1 1 1 1 1 1 1 1 1 1
          1 1 1 1 1 1 1 1 1 1 1 1
          1 1 1 1 1 1 1 1 1 1 1 1
          1 1 1 1 1 1 1 1 1 1 1 1
          1 1 1 1 1 1 1 1 1 1 1 1
          1 1 1 1 1 1 1 1 1 1 1 1
          1 1 1 1 1 1 1 1 1 1 1 1
          1 1 1 1 1 1 1 1 1 1 1 1
          1 1 1 1 1 1 1 1 1 1 1 1
          1 1 1 1 1 1 1 1 1 1 1 1
          1 1 1 1 1 1 1 1 1 1 1 1
          1 1 1 1 1 1 1 1 1 1 1 1
          1 1 1 1 1 1 1 1 1 1 1 1
          1 1 1 1 1 1 1 1 1 1 1 1
          1 1 1 1 1 1 1 1 1 1 1 1
          1 1 1 1 1 1 1 1 1 1 1 1
          1 1 1 1 1 1 1 1 1 1 1 1
          1 1 1 1 1 1 1 1 1 1 1 1
          1 1 1 1 1
        </DataArray>
        <DataArray type="Float32" Name="relativePerm_l" NumberOfComponents="1" format="ascii">
          0 0 0 0 0 0 0 0 0 0 0 0
          0 0 0 0 0 0 0 0 0 0 0 0
          0 0 0 0 0 0 0 0 0 0 0 0
          0 0 0 0 0 0 0 0 3.50472e-05 2.7737e-05 0.41854 0.35748
          0.999981 0.999993 0 0 0 0 0 0 0 0 0 0
          0 0 0 0 0 0 0 0 0 0 0 0
          1.59452e-05 0.357245 0.999997 0 0 0 0 0 0 0 0 0
          0 0 0 0 0 0 0 0 0 0 0 0
          0 7.30647e-07 0.337806 1 0 0 0 0 0 0 0 0
          0 0 0 0 0 0 0 0 0 0 0 0
          0 0 1.3317e-09 0.199718 0.999927 0 0 0 0 0 0 0
          0 0 0 0 0 0 0 0 0 0 0 0
          0 0 0 0 2.67881e-06 0.0638306 0 0 0 0 0 0
          0 0 0 0 0 0 0 0 0 0 0 0
          0 0 0 0 0 0 0 0 0 0 0 0
          0 0 0 0 0 0 0 0 0 0 0 0
          0 0 0 0 0 0 0 0 0 0 0 0
          0 0 0 0 0 0 0 0 0 0 0 0
          0 0 0 0 0 0 0 0 0 0 0 0
          0 0 0 0 0 0 0 0 0 0 0 0
          0 0 0 0 0 0 0 0 0 0 0 0
          0 0 0 0 0 0 0 0 0 0 0 0
          0 0 0 0 0 0 0 0 0 0 0 0
          0 0 0 0 0 0 0 0 0 0 0 0
          0 0 0 0 0 0 0 0 0 0 0 0
          0 0 0 0 0 0 0 0 0 0 0 0
          0 0 0 0 0 0 0 0 0 0 0 0
          0 0 0 0 0 0 0 0 0 0 0 0
          0 0 0 0 0 0 0 0 0 0 0 0
          0 0 0 0 0 0 0 0 0 0 0 0
          0 0 0 0 0 0 0 0 0 0 0 0
          0 0 0 0 0 0 0 0 0 0 0 0
          0 0 0 0 0 0 0 0 0 0 0 0
          0 0 0 0 0 0 0 0 0 0 0 0
          0 0 0 0 0 0 0 0 0 0 0 0
          0 0 0 0 0
        </DataArray>
        <DataArray type="Float32" Name="relativePerm_g" NumberOfComponents="1" format="ascii">
          1 1 1 1 1 1 1 1 1 1 1 1
          1 1 1 1 1 1 1 1 1 1 1 1
          1 1 1 1 1 1 1 1 1 1 1 1
          1 1 1 1 1 1 1 1 0.999965 0.999972 0.58146 0.64252
          1.88627e-05 6.73166e-06 1 1 1 1 1 1 1 1 1 1
          1 1 1 1 1 1 1 1 1 1 1 1
          0.999984 0.642755 3.24244e-06 1 1 1 1 1 1 1 1 1
          1 1 1 1 1 1 1 1 1 1 1 1
          1 0.999999 0.662194 0 1 1 1 1 1 1 1 1
          1 1 1 1 1 1 1 1 1 1 1 1
          1 1 1 0.800282 7.28158e-05 1 1 1 1 1 1 1
          1 1 1 1 1 1 1 1 1 1 1 1
          1 1 1 1 0.999997 0.936169 1 1 1 1 1 1
          1 1 1 1 1 1 1 1 1 1 1 1
          1 1 1 1 1 1 1 1 1 1 1 1
          1 1 1 1 1 1 1 1 1 1 1 1
          1 1 1 1 1 1 1 1 1 1 1 1
          1 1 1 1 1 1 1 1 1 1 1 1
          1 1 1 1 1 1 1 1 1 1 1 1
          1 1 1 1 1 1 1 1 1 1 1 1
          1 1 1 1 1 1 1 1 1 1 1 1
          1 1 1 1 1 1 1 1 1 1 1 1
          1 1 1 1 1 1 1 1 1 1 1 1
          1 1 1 1 1 1 1 1 1 1 1 1
          1 1 1 1 1 1 1 1 1 1 1 1
          1 1 1 1 1 1 1 1 1 1 1 1
          1 1 1 1 1 1 1 1 1 1 1 1
          1 1 1 1 1 1 1 1 1 1 1 1
          1 1 1 1 1 1 1 1 1 1 1 1
          1 1 1 1 1 1 1 1 1 1 1 1
          1 1 1 1 1 1 1 1 1 1 1 1
          1 1 1 1 1 1 1 1 1 1 1 1
          1 1 1 1 1 1 1 1 1 1 1 1
          1 1 1 1 1 1 1 1 1 1 1 1
          1 1 1 1 1 1 1 1 1 1 1 1
          1 1 1 1 1
        </DataArray>
        <DataArray type="Float32" Name="porosity" NumberOfComponents="1" format="ascii">
          0.3 0.3 0.3 0.3 0.3 0.3 0.3 0.3 0.3 0.3 0.3 0.3
          0.3 0.3 0.3 0.3 0.3 0.3 0.3 0.3 0.3 0.3 0.3 0.3
          0.3 0.3 0.3 0.3 0.3 0.3 0.3 0.3 0.3 0.3 0.3 0.3
          0.3 0.3 0.3 0.3 0.3 0.3 0.3 0.3 0.3 0.3 0.3 0.3
          0.3 0.3 0.3 0.3 0.3 0.3 0.3 0.3 0.3 0.3 0.3 0.3
          0.3 0.3 0.3 0.3 0.3 0.3 0.3 0.3 0.3 0.3 0.3 0.3
          0.3 0.3 0.3 0.3 0.3 0.3 0.3 0.3 0.3 0.3 0.3 0.3
          0.3 0.3 0.3 0.3 0.3 0.3 0.3 0.3 0.3 0.3 0.3 0.3
          0.3 0.3 0.3 0.3 0.3 0.3 0.3 0.3 0.3 0.3 0.3 0.3
          0.3 0.3 0.3 0.3 0.3 0.3 0.3 0.3 0.3 0.3 0.3 0.3
          0.3 0.3 0.3 0.3 0.3 0.3 0.3 0.3 0.3 0.3 0.3 0.3
          0.3 0.3 0.3 0.3 0.3 0.3 0.3 0.3 0.3 0.3 0.3 0.3
          0.3 0.3 0.3 0.3 0.3 0.3 0.3 0.3 0.3 0.3 0.3 0.3
          0.3 0.3 0.3 0.3 0.3 0.3 0.3 0.3 0.3 0.3 0.3 0.3
          0.3 0.3 0.3 0.3 0.3 0.3 0.3 0.3 0.3 0.3 0.3 0.3
          0.3 0.3 0.3 0.3 0.3 0.3 0.3 0.3 0.3 0.3 0.3 0.3
          0.3 0.3 0.3 0.3 0.3 0.3 0.3 0.3 0.3 0.3 0.3 0.3
          0.3 0.3 0.3 0.3 0.3 0.3 0.3 0.3 0.3 0.3 0.3 0.3
          0.3 0.3 0.3 0.3 0.3 0.3 0.3 0.3 0.3 0.3 0.3 0.3
          0.3 0.3 0.3 0.3 0.3 0.3 0.3 0.3 0.3 0.3 0.3 0.3
          0.3 0.3 0.3 0.3 0.3 0.3 0.3 0.3 0.3 0.3 0.3 0.3
          0.3 0.3 0.3 0.3 0.3 0.3 0.3 0.3 0.3 0.3 0.3 0.3
          0.3 0.3 0.3 0.3 0.3 0.3 0.3 0.3 0.3 0.3 0.3 0.3
          0.3 0.3 0.3 0.3 0.3 0.3 0.3 0.3 0.3 0.3 0.3 0.3
          0.3 0.3 0.3 0.3 0.3 0.3 0.3 0.3 0.3 0.3 0.3 0.3
          0.3 0.3 0.3 0.3 0.3 0.3 0.3 0.3 0.3 0.3 0.3 0.3
          0.3 0.3 0.3 0.3 0.3 0.3 0.3 0.3 0.3 0.3 0.3 0.3
          0.3 0.3 0.3 0.3 0.3 0.3 0.3 0.3 0.3 0.3 0.3 0.3
          0.3 0.3 0.3 0.3 0.3 0.3 0.3 0.3 0.3 0.3 0.3 0.3
          0.3 0.3 0.3 0.3 0.3 0.3 0.3 0.3 0.3 0.3 0.3 0.3
          0.3 0.3 0.3 0.3 0.3 0.3 0.3 0.3 0.3 0.3 0.3 0.3
          0.3 0.3 0.3 0.3 0.3 0.3 0.3 0.3 0.3 0.3 0.3 0.3
          0.3 0.3 0.3 0.3 0.3 0.3 0.3 0.3 0.3 0.3 0.3 0.3
          0.3 0.3 0.3 0.3 0.3 0.3 0.3 0.3 0.3 0.3 0.3 0.3
          0.3 0.3 0.3 0.3 0.3 0.3 0.3 0.3 0.3 0.3 0.3 0.3
          0.3 0.3 0.3 0.3 0.3
        </DataArray>
        <DataArray type="Float32" Name="moleFrac_l^H2O" NumberOfComponents="1" format="ascii">
          0.315516 0.315636 0.315499 0.31557 0.315692 0.315618 0.315723 0.31564 0.315499 0.315491 0.315488 0.315483
          0.315488 0.315483 0.315489 0.315483 0.315562 0.315554 0.318305 0.318196 0.318455 0.318351 0.318772 0.318666
          0.319259 0.319149 0.319926 0.319809 0.320785 0.320661 0.32185 0.321715 0.323133 0.322985 0.324667 0.3245
          0.326762 0.326542 0.332723 0.332172 0.367584 0.36514 0.544659 0.537641 0.999988 0.999988 0.999988 0.999988
          0.999979 0.999979 0.315492 0.315535 0.315566 0.315582 0.315488 0.315483 0.315483 0.315483 0.315548 0.318066
          0.318219 0.318526 0.318996 0.319639 0.320466 0.32149 0.322722 0.324184 0.326089 0.330861 0.358353 0.512402
          0.999988 0.999988 0.999979 0.315488 0.315513 0.315532 0.315541 0.315486 0.315483 0.315483 0.315483 0.315543
          0.317914 0.318061 0.318355 0.318805 0.319419 0.320208 0.321183 0.322355 0.323736 0.325455 0.329094 0.349052
          0.472174 0.999988 0.999988 0.999979 0.315486 0.315497 0.315506 0.315512 0.315484 0.315483 0.315483 0.315483
          0.315537 0.317743 0.317881 0.318158 0.31858 0.319155 0.319894 0.320805 0.321898 0.32318 0.324715 0.327421
          0.341776 0.449116 0.999988 0.999988 0.999981 0.315479 0.315481 0.315485 0.315488 0.315483 0.315483 0.315483
          0.315483 0.315532 0.317556 0.317683 0.317939 0.318328 0.318858 0.319537 0.320372 0.32137 0.322537 0.323886
          0.32561 0.330369 0.365097 0.591034 0.999988 0.999989 0.315462 0.315463 0.315465 0.315466 0.315483 0.315483
          0.315483 0.315483 0.315526 0.317357 0.317473 0.317706 0.318058 0.318537 0.319148 0.319899 0.320792 0.321832
          0.323019 0.32438 0.326313 0.333517 0.381807 0.587971 0.408083 0.315442 0.315442 0.315443 0.315444 0.315482
          0.315483 0.315483 0.315483 0.31552 0.317152 0.317256 0.317464 0.317778 0.318203 0.318743 0.319404 0.320187
          0.32109 0.32211 0.32324 0.3245 0.326293 0.332384 0.357233 0.334967 0.315418 0.315418 0.315419 0.315419
          0.315481 0.315483 0.315483 0.315483 0.315515 0.316946 0.317038 0.31722 0.317495 0.317866 0.318336 0.318907
          0.319578 0.320344 0.321197 0.322116 0.323067 0.324001 0.32507 0.327379 0.325927 0.315391 0.315391 0.315392
          0.315392 0.31548 0.315483 0.315483 0.315483 0.315509 0.316742 0.316822 0.316981 0.317218 0.317538 0.31794
          0.318425 0.31899 0.319627 0.320323 0.321055 0.321784 0.322449 0.322994 0.323431 0.323464 0.31536 0.31536
          0.315361 0.315361 0.315479 0.315483 0.315483 0.315483 0.315504 0.316545 0.316614 0.31675 0.316954 0.317226
          0.317567 0.317973 0.318442 0.318964 0.319526 0.320103 0.320663 0.321164 0.321561 0.321817 0.321901 0.315325
          0.315325 0.315325 0.315326 0.315478 0.315483 0.315483 0.315483 0.315499 0.316356 0.316416 0.316534 0.316708
          0.316939 0.317225 0.317564 0.31795 0.318375 0.318825 0.31928 0.319714 0.320097 0.320397 0.320589 0.320655
          0.315284 0.315284 0.315285 0.315286 0.315476 0.315483 0.315483 0.315483 0.315494 0.316177 0.31623 0.316333
          0.316484 0.316681 0.316922 0.317205 0.317524 0.317871 0.318233 0.318595 0.318935 0.319232 0.319463 0.31961
          0.31966 0.315237 0.315238 0.31524 0.315241 0.315474 0.315482 0.315483 0.315483 0.315489 0.316007 0.316057
          0.316151 0.316285 0.316457 0.316664 0.316903 0.31717 0.317458 0.317754 0.318047 0.31832 0.318555 0.318738
          0.318853 0.318893 0.315182 0.315185 0.315192 0.31519 0.315467 0.315476 0.315478 0.315479 0.315483 0.315839
          0.315894 0.31599 0.316115 0.316269 0.316452 0.316661 0.316891 0.317137 0.317388 0.317634 0.317861 0.318056
          0.318206 0.318301 0.318333 0.315117 0.315122 0.315137 0.31518 0.315218 0.315286 0.315357 0.315438 0.315543
          0.315639 0.31575 0.315854 0.315976 0.316121 0.316289 0.31648 0.316689 0.31691 0.317135 0.317353 0.317554
          0.317726 0.317857 0.31794 0.317968 0.315038 0.315043 0.315062 0.315096 0.315141 0.3152 0.31527 0.315351
          0.315442 0.31554 0.315642 0.31575 0.315871 0.316013 0.316177 0.316361 0.316563 0.316776 0.316992 0.317201
          0.317394 0.317558 0.317683 0.317762 0.317789
        </DataArray>
        <DataArray type="Float32" Name="moleFrac_l^N2" NumberOfComponents="1" format="ascii">
          1.14733e-05 1.14777e-05 1.14727e-05 1.14753e-05 1.14797e-05 1.1477e-05 1.14808e-05 1.14778e-05 1.14727e-05 1.14724e-05 1.14723e-05 1.14721e-05
          1.14723e-05 1.14721e-05 1.14723e-05 1.14721e-05 1.1475e-05 1.14747e-05 1.15747e-05 1.15708e-05 1.15802e-05 1.15764e-05 1.15917e-05 1.15879e-05
          1.16094e-05 1.16054e-05 1.16337e-05 1.16294e-05 1.16649e-05 1.16604e-05 1.17036e-05 1.16987e-05 1.17503e-05 1.17449e-05 1.18053e-05 1.17993e-05
          1.1869e-05 1.18621e-05 1.19408e-05 1.19328e-05 1.20131e-05 1.20036e-05 1.20475e-05 1.20357e-05 1.19989e-05 1.19813e-05 1.22372e-05 1.22223e-05
          2.14625e-05 2.10327e-05 1.14725e-05 1.1474e-05 1.14752e-05 1.14757e-05 1.14723e-05 1.14721e-05 1.14721e-05 1.14721e-05 1.14745e-05 1.15661e-05
          1.15716e-05 1.15828e-05 1.15999e-05 1.16232e-05 1.16533e-05 1.16906e-05 1.17353e-05 1.1788e-05 1.18486e-05 1.19164e-05 1.19837e-05 1.20115e-05
          1.1925e-05 1.21142e-05 2.09952e-05 1.14723e-05 1.14732e-05 1.14739e-05 1.14742e-05 1.14722e-05 1.14721e-05 1.14721e-05 1.14721e-05 1.14743e-05
          1.15605e-05 1.15659e-05 1.15766e-05 1.15929e-05 1.16152e-05 1.16439e-05 1.16794e-05 1.1722e-05 1.1772e-05 1.18293e-05 1.18933e-05 1.19574e-05
          1.19855e-05 1.18508e-05 1.19014e-05 2.05194e-05 1.14722e-05 1.14726e-05 1.1473e-05 1.14732e-05 1.14722e-05 1.14721e-05 1.14721e-05 1.14721e-05
          1.14741e-05 1.15543e-05 1.15593e-05 1.15694e-05 1.15847e-05 1.16057e-05 1.16325e-05 1.16657e-05 1.17054e-05 1.17519e-05 1.18053e-05 1.1865e-05
          1.19268e-05 1.1959e-05 1.18211e-05 1.16829e-05 1.91872e-05 1.1472e-05 1.1472e-05 1.14722e-05 1.14723e-05 1.14721e-05 1.14721e-05 1.14721e-05
          1.14721e-05 1.14739e-05 1.15475e-05 1.15521e-05 1.15614e-05 1.15756e-05 1.15948e-05 1.16195e-05 1.16499e-05 1.16862e-05 1.17286e-05 1.17773e-05
          1.18322e-05 1.1893e-05 1.19534e-05 1.19742e-05 1.22054e-05 1.12553e-05 1.14714e-05 1.14714e-05 1.14715e-05 1.14715e-05 1.14721e-05 1.14721e-05
          1.14721e-05 1.14721e-05 1.14737e-05 1.15403e-05 1.15445e-05 1.15529e-05 1.15658e-05 1.15832e-05 1.16054e-05 1.16327e-05 1.16652e-05 1.1703e-05
          1.17461e-05 1.17947e-05 1.18491e-05 1.19102e-05 1.19723e-05 1.19063e-05 1.19315e-05 1.14706e-05 1.14706e-05 1.14707e-05 1.14707e-05 1.14721e-05
          1.14721e-05 1.14721e-05 1.14721e-05 1.14735e-05 1.15328e-05 1.15366e-05 1.15441e-05 1.15556e-05 1.1571e-05 1.15907e-05 1.16147e-05 1.16432e-05
          1.1676e-05 1.17131e-05 1.17541e-05 1.17986e-05 1.18447e-05 1.18814e-05 1.18892e-05 1.18989e-05 1.14698e-05 1.14698e-05 1.14698e-05 1.14698e-05
          1.14721e-05 1.14721e-05 1.14721e-05 1.14721e-05 1.14733e-05 1.15253e-05 1.15287e-05 1.15353e-05 1.15453e-05 1.15588e-05 1.15759e-05 1.15966e-05