<?xml version="1.0"?>
<VTKFile type="UnstructuredGrid" version="0.1" byte_order="LittleEndian">
  <UnstructuredGrid>
    <Piece NumberOfCells="384" NumberOfPoints="425">
      <PointData Scalars="pressure_l">
        <DataArray type="Float32" Name="pressure_l" NumberOfComponents="1" format="ascii">
          100011 100048 100005 100028 100066 100043 100076 100050 100005 100003 100002 100000
          100002 100000 100002 100000 100025 100023 100894 100859 100941 100908 101041 101008
          101195 101160 101406 101369 101678 101639 102016 101973 102423 102376 102904 102851
          103461 103401 104102 104031 104838 104748 105698 105574 106722 106570 108781 108651
          188384 184676 100003 100017 100027 100031 100002 100000 100000 100000 100021 100818
          100866 100963 101112 101315 101577 101902 102293 102753 103283 103885 104554 105284
          106084 107718 184352 100002 100010 100016 100019 100001 100000 100000 100000 100019
          100770 100816 100909 101051 101246 101496 101805 102176 102613 103114 103680 104298
          104932 105444 105880 183561 100001 100004 100008 100009 100001 100000 100000 100000
          100018 100716 100759 100847 100980 101162 101396 101685 102032 102438 102904 103430
          104010 104629 105187 103996 168742 99998.8 99999.5 100001 100002 100000 100000 100000
          100000 100016 100657 100697 100778 100901 101068 101283 101548 101864 102235 102659
          103140 103681 104314 105211 108503 100305 99993.5 99993.8 99994.3 99994.7 100000 100000
          100000 100000 100014 100594 100631 100704 100815 100967 101160 101398 101681 102011
          102387 102811 103288 103839 104529 104614 104262 99987.1 99987.2 99987.5 99987.7 99999.7
          100000 100000 100000 100012 100529 100562 100628 100727 100861 101032 101241 101489
          101775 102099 102457 102846 103250 103586 103734 103747 99979.7 99979.8 99979.9 99980.1
          99999.5 100000 100000 100000 100010 100464 100493 100551 100638 100755 100903 101084
          101296 101539 101809 102101 102402 102688 102916 103050 103091 99971.2 99971.2 99971.3
          99971.5 99999.2 100000 100000 100000 100009 100400 100425 100475 100550 100651 100778
          100931 101110 101312 101532 101764 101995 102206 102373 102479 102514 99961.4 99961.4
          99961.6 99961.8 99998.9 100000 100000 100000 100007 100338 100359 100402 100467 100553
          100660 100789 100937 101102 101280 101462 101640 101799 101924 102004 102032 99950.2
          99950.2 99950.4 99950.6 99998.4 100000 100000 100000 100005 100278 100297 100334 100389
          100462 100552 100659 100781 100915 101058 101202 101339 101460 101555 101616 101637
          99937.3 99937.4 99937.7 99938 99997.9 100000 100000 100000 100004 100221 100238 100271
          100318 100380 100457 100546 100647 100756 100870 100985 101092 101186 101259 101306
          101322 99922.5 99922.9 99923.4 99923.7 99997.3 99999.9 100000 100000 100002 100168 100183
          100213 100255 100310 100375 100450 100535 100625 100719 100811 100898 100972 101030
          101066 101079 99905.3 99906.1 99908.3 99907.8 99995.1 99998.1 99998.6 99999 100000 100115
          100132 100162 100202 100250 100308 100374 100447 100524 100603 100681 100752 100814
          100861 100891 100902 99884.6 99886.1 99891 99904.6 99916.9 99938.9 99961.4 99987.4 100021
          100051 100086 100119 100158 100203 100256 100317 100383 100452 100523 100592 100655
          100709 100751 100777 100786 99859.5 99861.2 99867.4 99878.1 99892.7 99911.6 99934 99959.8
          99988.8 100020 100052 100086 100125 100169 100221 100279 100343 100410 100478 100544
          100605 100656 100696 100721 100729
        </DataArray>
        <DataArray type="Float32" Name="pressure_g" NumberOfComponents="1" format="ascii">
          100011 100048 100005 100028 100066 100043 100076 100050 100005 100003 100002 100000
          100002 100000 100002 100000 100025 100023 100894 100859 100941 100908 101041 101008
          101195 101160 101406 101369 101678 101639 102016 101973 102423 102376 102904 102851
          103461 103401 104102 104031 104838 104748 105698 105574 106722 106570 108781 108651
          188384 184676 100003 100017 100027 100031 100002 100000 100000 100000 100021 100818
          100866 100963 101112 101315 101577 101902 102293 102753 103283 103885 104554 105284
          106084 107718 184352 100002 100010 100016 100019 100001 100000 100000 100000 100019
          100770 100816 100909 101051 101246 101496 101805 102176 102613 103114 103680 104298
          104932 105444 105880 183561 100001 100004 100008 100009 100001 100000 100000 100000
          100018 100716 100759 100847 100980 101162 101396 101685 102032 102438 102904 103430
          104010 104629 105187 103996 168742 99998.8 99999.5 100001 100002 100000 100000 100000
          100000 100016 100657 100697 100778 100901 101068 101283 101548 101864 102235 102659
          103140 103681 104314 105211 108503 100305 99993.5 99993.8 99994.3 99994.7 100000 100000
          100000 100000 100014 100594 100631 100704 100815 100967 101160 101398 101681 102011
          102387 102811 103288 103839 104529 104614 104262 99987.1 99987.2 99987.5 99987.7 99999.7
          100000 100000 100000 100012 100529 100562 100628 100727 100861 101032 101241 101489
          101775 102099 102457 102846 103250 103586 103734 103747 99979.7 99979.8 99979.9 99980.1
          99999.5 100000 100000 100000 100010 100464 100493 100551 100638 100755 100903 101084
          101296 101539 101809 102101 102402 102688 102916 103050 103091 99971.2 99971.2 99971.3
          99971.5 99999.2 100000 100000 100000 100009 100400 100425 100475 100550 100651 100778
          100931 101110 101312 101532 101764 101995 102206 102373 102479 102514 99961.4 99961.4
          99961.6 99961.8 99998.9 100000 100000 100000 100007 100338 100359 100402 100467 100553
          100660 100789 100937 101102 101280 101462 101640 101799 101924 102004 102032 99950.2
          99950.2 99950.4 99950.6 99998.4 100000 100000 100000 100005 100278 100297 100334 100389
          100462 100552 100659 100781 100915 101058 101202 101339 101460 101555 101616 101637
          99937.3 99937.4 99937.7 99938 99997.9 100000 100000 100000 100004 100221 100238 100271
          100318 100380 100457 100546 100647 100756 100870 100985 101092 101186 101259 101306
          101322 99922.5 99922.9 99923.4 99923.7 99997.3 99999.9 100000 100000 100002 100168 100183
          100213 100255 100310 100375 100450 100535 100625 100719 100811 100898 100972 101030
          101066 101079 99905.3 99906.1 99908.3 99907.8 99995.1 99998.1 99998.6 99999 100000 100115
          100132 100162 100202 100250 100308 100374 100447 100524 100603 100681 100752 100814
          100861 100891 100902 99884.6 99886.1 99891 99904.6 99916.9 99938.9 99961.4 99987.4 100021
          100051 100086 100119 100158 100203 100256 100317 100383 100452 100523 100592 100655
          100709 100751 100777 100786 99859.5 99861.2 99867.4 99878.1 99892.7 99911.6 99934 99959.8
          99988.8 100020 100052 100086 100125 100169 100221 100279 100343 100410 100478 100544
          100605 100656 100696 100721 100729
        </DataArray>
        <DataArray type="Float32" Name="density_l" NumberOfComponents="1" format="ascii">
          997.068 997.068 997.068 997.068 997.068 997.068 997.068 997.068 997.068 997.068 997.068 997.068
          997.068 997.068 997.068 997.068 997.068 997.068 997.068 997.068 997.068 997.068 997.068 997.068
          997.068 997.068 997.068 997.068 997.069 997.069 997.069 997.069 997.069 997.069 997.069 997.069
          997.069 997.069 997.069 997.069 997.068 997.068 997.062 997.063 997.057 997.057 997.058 997.058
          997.099 997.097 997.068 997.068 997.068 997.068 997.068 997.068 997.068 997.068 997.068 997.068
          997.068 997.068 997.068 997.068 997.068 997.069 997.069 997.069 997.069 997.069 997.068 997.063
          997.057 997.058 997.097 997.068 997.068 997.068 997.068 997.068 997.068 997.068 997.068 997.068
          997.068 997.068 997.068 997.068 997.068 997.068 997.069 997.069 997.069 997.069 997.069 997.069
          997.064 997.057 997.057 997.097 997.068 997.068 997.068 997.068 997.068 997.068 997.068 997.068
          997.068 997.068 997.068 997.068 997.068 997.068 997.068 997.069 997.069 997.069 997.069 997.069
          997.069 997.065 997.057 997.056 997.089 997.068 997.068 997.068 997.068 997.068 997.068 997.068
          997.068 997.068 997.068 997.068 997.068 997.068 997.068 997.068 997.068 997.069 997.069 997.069
          997.069 997.069 997.068 997.061 997.058 997.054 997.068 997.068 997.068 997.068 997.068 997.068
          997.068 997.068 997.068 997.068 997.068 997.068 997.068 997.068 997.068 997.068 997.069 997.069
          997.069 997.069 997.069 997.069 997.067 997.061 997.066 997.068 997.068 997.068 997.068 997.068
          997.068 997.068 997.068 997.068 997.068 997.068 997.068 997.068 997.068 997.068 997.068 997.068
          997.069 997.069 997.069 997.069 997.069 997.069 997.068 997.069 997.068 997.068 997.068 997.068
          997.068 997.068 997.068 997.068 997.068 997.068 997.068 997.068 997.068 997.068 997.068 997.068
          997.068 997.068 997.069 997.069 997.069 997.069 997.069 997.069 997.069 997.068 997.068 997.068
          997.068 997.068 997.068 997.068 997.068 997.068 997.068 997.068 997.068 997.068 997.068 997.068
          997.068 997.068 997.068 997.068 997.069 997.069 997.069 997.069 997.069 997.069 997.068 997.068
          997.068 997.068 997.068 997.068 997.068 997.068 997.068 997.068 997.068 997.068 997.068 997.068
          997.068 997.068 997.068 997.068 997.068 997.068 997.069 997.069 997.069 997.069 997.069 997.068
          997.068 997.068 997.068 997.068 997.068 997.068 997.068 997.068 997.068 997.068 997.068 997.068
          997.068 997.068 997.068 997.068 997.068 997.068 997.068 997.068 997.068 997.068 997.069 997.069
          997.068 997.068 997.068 997.068 997.068 997.068 997.068 997.068 997.068 997.068 997.068 997.068
          997.068 997.068 997.068 997.068 997.068 997.068 997.068 997.068 997.068 997.068 997.068 997.068
          997.068 997.068 997.068 997.068 997.068 997.068 997.068 997.068 997.068 997.068 997.068 997.068
          997.068 997.068 997.068 997.068 997.068 997.068 997.068 997.068 997.068 997.068 997.068 997.068
          997.068 997.068 997.068 997.068 997.068 997.068 997.068 997.068 997.068 997.068 997.068 997.068
          997.068 997.068 997.068 997.068 997.068 997.068 997.068 997.068 997.068 997.068 997.068 997.068
          997.068 997.068 997.068 997.068 997.068 997.068 997.068 997.068 997.068 997.068 997.068 997.068
          997.068 997.068 997.068 997.068 997.068 997.068 997.068 997.068 997.068 997.068 997.068 997.068
          997.068 997.068 997.068 997.068 997.068 997.068 997.068 997.068 997.068 997.068 997.068 997.068
          997.068 997.068 997.068 997.068 997.068 997.068 997.068 997.068 997.068 997.068 997.068 997.068
          997.068 997.068 997.068 997.068 997.068
        </DataArray>
        <DataArray type="Float32" Name="density_g" NumberOfComponents="1" format="ascii">
          1.12612 1.12655 1.12606 1.12631 1.12675 1.12648 1.12686 1.12656 1.12606 1.12603 1.12602 1.126
          1.12602 1.126 1.12602 1.12601 1.12629 1.12626 1.13606 1.13568 1.1366 1.13623 1.13772 1.13735
          1.13946 1.13907 1.14184 1.14142 1.1449 1.14446 1.1487 1.14822 1.15329 1.15276 1.1587 1.15811
          1.16497 1.1643 1.17214 1.17135 1.18002 1.17904 1.1875 1.18619 1.19327 1.19155 1.21653 1.21506
          2.11609 2.07417 1.12604 1.12619 1.1263 1.12636 1.12602 1.126 1.126 1.12601 1.12624 1.13521
          1.13576 1.13685 1.13852 1.14081 1.14377 1.14742 1.15182 1.157 1.16297 1.16971 1.17693 1.18324
          1.18606 1.20452 2.07052 1.12602 1.12611 1.12618 1.12621 1.12601 1.126 1.126 1.126 1.12622
          1.13467 1.13519 1.13624 1.13784 1.14003 1.14284 1.14632 1.15051 1.15542 1.16107 1.16741 1.17414
          1.17975 1.17882 1.18374 2.06128 1.12602 1.12605 1.12609 1.12611 1.12601 1.126 1.126 1.126
          1.1262 1.13406 1.13455 1.13554 1.13704 1.13909 1.14172 1.14498 1.14888 1.15345 1.1587 1.16461
          1.17099 1.17667 1.17591 1.16246 1.89412 1.12599 1.126 1.12601 1.12602 1.12601 1.126 1.126
          1.126 1.12618 1.1334 1.13385 1.13476 1.13614 1.13803 1.14045 1.14343 1.147 1.15116 1.15595
          1.16135 1.16741 1.17412 1.18137 1.21338 1.12075 1.12593 1.12593 1.12594 1.12594 1.126 1.126
          1.126 1.126 1.12616 1.13269 1.1331 1.13393 1.13518 1.13689 1.13907 1.14174 1.14493 1.14864
          1.15288 1.15766 1.16302 1.16916 1.17633 1.17466 1.17292 1.12586 1.12586 1.12586 1.12586 1.126
          1.126 1.126 1.126 1.12614 1.13196 1.13233 1.13307 1.13419 1.1357 1.13762 1.13998 1.14277
          1.14599 1.14964 1.15367 1.15804 1.16259 1.16631 1.16766 1.16808 1.12577 1.12577 1.12578 1.12578
          1.126 1.126 1.126 1.126 1.12612 1.13123 1.13156 1.1322 1.13318 1.1345 1.13617 1.13821
          1.1406 1.14333 1.14638 1.14966 1.15305 1.15627 1.15883 1.16032 1.1608 1.12568 1.12568 1.12568
          1.12568 1.12599 1.126 1.126 1.126 1.1261 1.13051 1.13079 1.13135 1.1322 1.13333 1.13476
          1.13649 1.1385 1.14077 1.14326 1.14587 1.14847 1.15084 1.15273 1.15391 1.15431 1.12557 1.12557
          1.12557 1.12557 1.12599 1.126 1.126 1.126 1.12608 1.1298 1.13005 1.13053 1.13126 1.13223
          1.13343 1.13488 1.13655 1.13841 1.14041 1.14247 1.14447 1.14626 1.14767 1.14857 1.14888 1.12544
          1.12544 1.12544 1.12545 1.12599 1.126 1.126 1.126 1.12606 1.12913 1.12935 1.12976 1.13038
          1.1312 1.13222 1.13342 1.1348 1.13631 1.13791 1.13953 1.14108 1.14245 1.14352 1.1442 1.14444
          1.1253 1.1253 1.1253 1.1253 1.12598 1.126 1.126 1.126 1.12605 1.1285 1.12869 1.12905
          1.12959 1.13029 1.13114 1.13215 1.13328 1.13452 1.1358 1.13709 1.1383 1.13936 1.14018 1.14071
          1.14089 1.12513 1.12513 1.12514 1.12514 1.12597 1.126 1.126 1.126 1.12603 1.12789 1.12807
          1.1284 1.12888 1.12949 1.13022 1.13107 1.13202 1.13304 1.1341 1.13514 1.13611 1.13695 1.1376
          1.13801 1.13815 1.12494 1.12495 1.12497 1.12496 1.12595 1.12598 1.12599 1.12599 1.12601 1.12729
          1.12749 1.12783 1.12827 1.12882 1.12947 1.13021 1.13103 1.1319 1.1328 1.13367 1.13448 1.13517
          1.1357 1.13604 1.13615 1.1247 1.12472 1.12477 1.12493 1.12507 1.12531 1.12557 1.12586 1.12624
          1.12658 1.12697 1.12735 1.12778 1.12829 1.12889 1.12957 1.13031 1.13109 1.13189 1.13267 1.13338
          1.13399 1.13446 1.13475 1.13485 1.12442 1.12444 1.12451 1.12463 1.12479 1.12501 1.12526 1.12555
          1.12588 1.12622 1.12659 1.12697 1.1274 1.12791 1.12849 1.12915 1.12986 1.13062 1.13138 1.13213
          1.13281 1.13339 1.13384 1.13412 1.13421
        </DataArray>
        <DataArray type="Float32" Name="saturation_l" NumberOfComponents="1" format="ascii">
          0 0 0 0 0 0 0 0 0 0 0 0
          0 0 0 0 0 0 0 0 0 0 0 0
          0 0 0 0 0 0 0 0 0 0 0 0
          0 0 0 0 0 0 0 0 0.00200684 0.00177943 0.423233 0.364935
          0.998565 0.99916 0 0 0 0 0 0 0 0 0 0
          0 0 0 0 0 0 0 0 0 0 0 0
          0.00134987 0.36471 0.999431 0 0 0 0 0 0 0 0 0
          0 0 0 0 0 0 0 0 0 0 0 0
          0 0.000287726 0.346285 1 0 0 0 0 0 0 0 0
          0 0 0 0 0 0 0 0 0 0 0 0
          0 0 9.38077e-06 0.215312 0.996983 0 0 0 0 0 0 0
          0 0 0 0 0 0 0 0 0 0 0 0
          0 0 0 0 0.000567996 0.0868347 0 0 0 0 0 0
          0 0 0 0 0 0 0 0 0 0 0 0
          0 0 0 0 0 0 0 0 0 0 0 0
          0 0 0 0 0 0 0 0 0 0 0 0
          0 0 0 0 0 0 0 0 0 0 0 0
          0 0 0 0 0 0 0 0 0 0 0 0
          0 0 0 0 0 0 0 0 0 0 0 0
          0 0 0 0 0 0 0 0 0 0 0 0
          0 0 0 0 0 0 0 0 0 0 0 0
          0 0 0 0 0 0 0 0 0 0 0 0
          0 0 0 0 0 0 0 0 0 0 0 0
          0 0 0 0 0 0 0 0 0 0 0 0
          0 0 0 0 0 0 0 0 0 0 0 0
          0 0 0 0 0 0 0 0 0 0 0 0
          0 0 0 0 0 0 0 0 0 0 0 0
          0 0 0 0 0 0 0 0 0 0 0 0
          0 0 0 0 0 0 0 0 0 0 0 0
          0 0 0 0 0 0 0 0 0 0 0 0
          0 0 0 0 0 0 0 0 0 0 0 0
          0 0 0 0 0 0 0 0 0 0 0 0
          0 0 0 0 0 0 0 0 0 0 0 0
          0 0 0 0 0 0 0 0 0 0 0 0
          0 0 0 0 0 0 0 0 0 0 0 0
          0 0 0 0 0
        </DataArray>
        <DataArray type="Float32" Name="saturation_g" NumberOfComponents="1" format="ascii">
          1 1 1 1 1 1 1 1 1 1 1 1
          1 1 1 1 1 1 1 1 1 1 1 1
          1 1 1 1 1 1 1 1 1 1 1 1
          1 1 1 1 1 1 1 1 0.997993 0.998221 0.576767 0.635065
          0.00143519 0.000839591 1 1 1 1 1 1 1 1 1 1
          1 1 1 1 1 1 1 1 1 1 1 1
          0.99865 0.63529 0.000568798 1 1 1 1 1 1 1 1 1
          1 1 1 1 1 1 1 1 1 1 1 1
          1 0.999712 0.653715 0 1 1 1 1 1 1 1 1
          1 1 1 1 1 1 1 1 1 1 1 1
          1 1 0.999991 0.784688 0.00301653 1 1 1 1 1 1 1
          1 1 1 1 1 1 1 1 1 1 1 1
          1 1 1 1 0.999432 0.913165 1 1 1 1 1 1
          1 1 1 1 1 1 1 1 1 1 1 1
          1 1 1 1 1 1 1 1 1 1 1 1
          1 1 1 1 1 1 1 1 1 1 1 1
          1 1 1 1 1 1 1 1 1 1 1 1
          1 1 1 1 1 1 1 1 1 1 1 1
          1 1 1 1 1 1 1 1 1 1 1 1
          1 1 1 1 1 1 1 1 1 1 1 1
          1 1 1 1 1 1 1 1 1 1 1 1
          1 1 1 1 1 1 1 1 1 1 1 1
          1 1 1 1 1 1 1 1 1 1 1 1
          1 1 1 1 1 1 1 1 1 1 1 1
          1 1 1 1 1 1 1 1 1 1 1 1
          1 1 1 1 1 1 1 1 1 1 1 1
          1 1 1 1 1 1 1 1 1 1 1 1
          1 1 1 1 1 1 1 1 1 1 1 1
          1 1 1 1 1 1 1 1 1 1 1 1
          1 1 1 1 1 1 1 1 1 1 1 1
          1 1 1 1 1 1 1 1 1 1 1 1
          1 1 1 1 1 1 1 1 1 1 1 1
          1 1 1 1 1 1 1 1 1 1 1 1
          1 1 1 1 1 1 1 1 1 1 1 1
          1 1 1 1 1 1 1 1 1 1 1 1
          1 1 1 1 1
        </DataArray>
        <DataArray type="Float32" Name="relativePerm_l" NumberOfComponents="1" format="ascii">
          0 0 0 0 0 0 0 0 0 0 0 0
          0 0 0 0 0 0 0 0 0 0 0 0
          0 0 0 0 0 0 0 0 0 0 0 0
          0 0 0 0 0 0 0 0 3.59789e-05 2.82708e-05 0.418968 0.357431
          0.999982 0.999994 0 0 0 0 0 0 0 0 0 0
          0 0 0 0 0 0 0 0 0 0 0 0
          1.62515e-05 0.357194 0.999997 0 0 0 0 0 0 0 0 0
          0 0 0 0 0 0 0 0 0 0 0 0
          0 7.36407e-07 0.337746 1 0 0 0 0 0 0 0 0
          0 0 0 0 0 0 0 0 0 0 0 0
          0 0 7.8223e-10 0.199496 0.999919 0 0 0 0 0 0 0
          0 0 0 0 0 0 0 0 0 0 0 0
          0 0 0 0 2.8718e-06 0.063881 0 0 0 0 0 0
          0 0 0 0 0 0 0 0 0 0 0 0
          0 0 0 0 0 0 0 0 0 0 0 0
          0 0 0 0 0 0 0 0 0 0 0 0
          0 0 0 0 0 0 0 0 0 0 0 0
          0 0 0 0 0 0 0 0 0 0 0 0
          0 0 0 0 0 0 0 0 0 0 0 0
          0 0 0 0 0 0 0 0 0 0 0 0
          0 0 0 0 0 0 0 0 0 0 0 0
          0 0 0 0 0 0 0 0 0 0 0 0
          0 0 0 0 0 0 0 0 0 0 0 0
          0 0 0 0 0 0 0 0 0 0 0 0
          0 0 0 0 0 0 0 0 0 0 0 0
          0 0 0 0 0 0 0 0 0 0 0 0
          0 0 0 0 0 0 0 0 0 0 0 0
          0 0 0 0 0 0 0 0 0 0 0 0
          0 0 0 0 0 0 0 0 0 0 0 0
          0 0 0 0 0 0 0 0 0 0 0 0
          0 0 0 0 0 0 0 0 0 0 0 0
          0 0 0 0 0 0 0 0 0 0 0 0
          0 0 0 0 0 0 0 0 0 0 0 0
          0 0 0 0 0 0 0 0 0 0 0 0
          0 0 0 0 0 0 0 0 0 0 0 0
          0 0 0 0 0
        </DataArray>
        <DataArray type="Float32" Name="relativePerm_g" NumberOfComponents="1" format="ascii">
          1 1 1 1 1 1 1 1 1 1 1 1
          1 1 1 1 1 1 1 1 1 1 1 1
          1 1 1 1 1 1 1 1 1 1 1 1
          1 1 1 1 1 1 1 1 0.999964 0.999972 0.581032 0.642569
          1.83749e-05 6.27905e-06 1 1 1 1 1 1 1 1 1 1
          1 1 1 1 1 1 1 1 1 1 1 1
          0.999984 0.642806 2.87992e-06 1 1 1 1 1 1 1 1 1
          1 1 1 1 1 1 1 1 1 1 1 1
          1 0.999999 0.662254 0 1 1 1 1 1 1 1 1
          1 1 1 1 1 1 1 1 1 1 1 1
          1 1 1 0.800504 8.14942e-05 1 1 1 1 1 1 1
          1 1 1 1 1 1 1 1 1 1 1 1
          1 1 1 1 0.999997 0.936119 1 1 1 1 1 1
          1 1 1 1 1 1 1 1 1 1 1 1
          1 1 1 1 1 1 1 1 1 1 1 1
          1 1 1 1 1 1 1 1 1 1 1 1
          1 1 1 1 1 1 1 1 1 1 1 1
          1 1 1 1 1 1 1 1 1 1 1 1
          1 1 1 1 1 1 1 1 1 1 1 1
          1 1 1 1 1 1 1 1 1 1 1 1
          1 1 1 1 1 1 1 1 1 1 1 1
          1 1 1 1 1 1 1 1 1 1 1 1
          1 1 1 1 1 1 1 1 1 1 1 1
          1 1 1 1 1 1 1 1 1 1 1 1
          1 1 1 1 1 1 1 1 1 1 1 1
          1 1 1 1 1 1 1 1 1 1 1 1
          1 1 1 1 1 1 1 1 1 1 1 1
          1 1 1 1 1 1 1 1 1 1 1 1
          1 1 1 1 1 1 1 1 1 1 1 1
          1 1 1 1 1 1 1 1 1 1 1 1
          1 1 1 1 1 1 1 1 1 1 1 1
          1 1 1 1 1 1 1 1 1 1 1 1
          1 1 1 1 1 1 1 1 1 1 1 1
          1 1 1 1 1 1 1 1 1 1 1 1
          1 1 1 1 1 1 1 1 1 1 1 1
          1 1 1 1 1
        </DataArray>
        <DataArray type="Float32" Name="porosity" NumberOfComponents="1" format="ascii">
          0.3 0.3 0.3 0.3 0.3 0.3 0.3 0.3 0.3 0.3 0.3 0.3
          0.3 0.3 0.3 0.3 0.3 0.3 0.3 0.3 0.3 0.3 0.3 0.3
          0.3 0.3 0.3 0.3 0.3 0.3 0.3 0.3 0.3 0.3 0.3 0.3
          0.3 0.3 0.3 0.3 0.3 0.3 0.3 0.3 0.3 0.3 0.3 0.3
          0.3 0.3 0.3 0.3 0.3 0.3 0.3 0.3 0.3 0.3 0.3 0.3
          0.3 0.3 0.3 0.3 0.3 0.3 0.3 0.3 0.3 0.3 0.3 0.3
          0.3 0.3 0.3 0.3 0.3 0.3 0.3 0.3 0.3 0.3 0.3 0.3
          0.3 0.3 0.3 0.3 0.3 0.3 0.3 0.3 0.3 0.3 0.3 0.3
          0.3 0.3 0.3 0.3 0.3 0.3 0.3 0.3 0.3 0.3 0.3 0.3
          0.3 0.3 0.3 0.3 0.3 0.3 0.3 0.3 0.3 0.3 0.3 0.3
          0.3 0.3 0.3 0.3 0.3 0.3 0.3 0.3 0.3 0.3 0.3 0.3
          0.3 0.3 0.3 0.3 0.3 0.3 0.3 0.3 0.3 0.3 0.3 0.3
          0.3 0.3 0.3 0.3 0.3 0.3 0.3 0.3 0.3 0.3 0.3 0.3
          0.3 0.3 0.3 0.3 0.3 0.3 0.3 0.3 0.3 0.3 0.3 0.3
          0.3 0.3 0.3 0.3 0.3 0.3 0.3 0.3 0.3 0.3 0.3 0.3
          0.3 0.3 0.3 0.3 0.3 0.3 0.3 0.3 0.3 0.3 0.3 0.3
          0.3 0.3 0.3 0.3 0.3 0.3 0.3 0.3 0.3 0.3 0.3 0.3
          0.3 0.3 0.3 0.3 0.3 0.3 0.3 0.3 0.3 0.3 0.3 0.3
          0.3 0.3 0.3 0.3 0.3 0.3 0.3 0.3 0.3 0.3 0.3 0.3
          0.3 0.3 0.3 0.3 0.3 0.3 0.3 0.3 0.3 0.3 0.3 0.3
          0.3 0.3 0.3 0.3 0.3 0.3 0.3 0.3 0.3 0.3 0.3 0.3
          0.3 0.3 0.3 0.3 0.3 0.3 0.3 0.3 0.3 0.3 0.3 0.3
          0.3 0.3 0.3 0.3 0.3 0.3 0.3 0.3 0.3 0.3 0.3 0.3
          0.3 0.3 0.3 0.3 0.3 0.3 0.3 0.3 0.3 0.3 0.3 0.3
          0.3 0.3 0.3 0.3 0.3 0.3 0.3 0.3 0.3 0.3 0.3 0.3
          0.3 0.3 0.3 0.3 0.3 0.3 0.3 0.3 0.3 0.3 0.3 0.3
          0.3 0.3 0.3 0.3 0.3 0.3 0.3 0.3 0.3 0.3 0.3 0.3
          0.3 0.3 0.3 0.3 0.3 0.3 0.3 0.3 0.3 0.3 0.3 0.3
          0.3 0.3 0.3 0.3 0.3 0.3 0.3 0.3 0.3 0.3 0.3 0.3
          0.3 0.3 0.3 0.3 0.3 0.3 0.3 0.3 0.3 0.3 0.3 0.3
          0.3 0.3 0.3 0.3 0.3 0.3 0.3 0.3 0.3 0.3 0.3 0.3
          0.3 0.3 0.3 0.3 0.3 0.3 0.3 0.3 0.3 0.3 0.3 0.3
          0.3 0.3 0.3 0.3 0.3 0.3 0.3 0.3 0.3 0.3 0.3 0.3
          0.3 0.3 0.3 0.3 0.3 0.3 0.3 0.3 0.3 0.3 0.3 0.3
          0.3 0.3 0.3 0.3 0.3 0.3 0.3 0.3 0.3 0.3 0.3 0.3
          0.3 0.3 0.3 0.3 0.3
        </DataArray>
        <DataArray type="Float32" Name="moleFrac_l^H2O" NumberOfComponents="1" format="ascii">
          0.315516 0.315635 0.315499 0.31557 0.315692 0.315618 0.315723 0.31564 0.315499 0.315491 0.315488 0.315483
          0.315488 0.315483 0.315489 0.315483 0.315563 0.315554 0.318301 0.318193 0.318451 0.318347 0.318767 0.318661
          0.319253 0.319143 0.319919 0.319803 0.320778 0.320653 0.321843 0.321708 0.323128 0.32298 0.324665 0.324497
          0.326755 0.326534 0.332618 0.332069 0.366865 0.364418 0.542489 0.535376 0.999988 0.999988 0.999988 0.999988
          0.999979 0.999979 0.315492 0.315535 0.315566 0.315582 0.315488 0.315483 0.315483 0.315483 0.315549 0.318063
          0.318215 0.318521 0.31899 0.319632 0.320459 0.321483 0.322717 0.324181 0.326082 0.330771 0.357686 0.510094
          0.999988 0.999988 0.999979 0.315488 0.315513 0.315532 0.315541 0.315486 0.315483 0.315483 0.315483 0.315543
          0.317911 0.318057 0.318351 0.318799 0.319412 0.320201 0.321176 0.322349 0.323733 0.325456 0.329091 0.348991
          0.47202 0.999988 0.999988 0.99998 0.315486 0.315497 0.315506 0.315512 0.315484 0.315483 0.315483 0.315483
          0.315538 0.31774 0.317878 0.318154 0.318575 0.319149 0.319887 0.320799 0.321892 0.323176 0.324711 0.327373
          0.341151 0.445062 0.999988 0.999988 0.999981 0.315479 0.315481 0.315485 0.315488 0.315483 0.315483 0.315483
          0.315483 0.315532 0.317554 0.317681 0.317936 0.318324 0.318853 0.31953 0.320365 0.321364 0.322533 0.323884
          0.325612 0.330378 0.365214 0.591757 0.999988 0.999989 0.315462 0.315463 0.315465 0.315466 0.315483 0.315483
          0.315483 0.315483 0.315527 0.317356 0.317472 0.317703 0.318055 0.318532 0.319143 0.319892 0.320786 0.321826
          0.323015 0.324379 0.326329 0.333664 0.382581 0.589187 0.413169 0.315442 0.315442 0.315443 0.315444 0.315482
          0.315483 0.315483 0.315483 0.315521 0.317152 0.317256 0.317463 0.317775 0.318199 0.318739 0.319398 0.32018
          0.321084 0.322105 0.323237 0.324501 0.32632 0.332567 0.357857 0.335905 0.315419 0.315419 0.315419 0.31542
          0.315481 0.315483 0.315483 0.315483 0.315515 0.316947 0.317038 0.31722 0.317494 0.317864 0.318332 0.318902
          0.319572 0.320338 0.321191 0.32211 0.323063 0.324001 0.32509 0.327473 0.326024 0.315392 0.315392 0.315392
          0.315393 0.31548 0.315483 0.315483 0.315483 0.31551 0.316744 0.316824 0.316981 0.317218 0.317536 0.317937
          0.318421 0.318984 0.319621 0.320317 0.321049 0.321778 0.322444 0.322991 0.323435 0.323467 0.315361 0.315361
          0.315361 0.315362 0.315479 0.315483 0.315483 0.315483 0.315505 0.316547 0.316617 0.316752 0.316955 0.317226
          0.317565 0.31797 0.318438 0.318959 0.319519 0.320096 0.320656 0.321158 0.321554 0.321811 0.321895 0.315325
          0.315326 0.315326 0.315327 0.315478 0.315483 0.315483 0.315483 0.315499 0.31636 0.316419 0.316536 0.31671
          0.316939 0.317224 0.317562 0.317947 0.318371 0.31882 0.319274 0.319707 0.32009 0.32039 0.320581 0.320647
          0.315285 0.315285 0.315286 0.315287 0.315476 0.315483 0.315483 0.315483 0.315494 0.316181 0.316234 0.316337
          0.316487 0.316683 0.316923 0.317205 0.317522 0.317868 0.318229 0.318589 0.318929 0.319225 0.319456 0.319602
          0.319653 0.315238 0.315239 0.315241 0.315242 0.315474 0.315482 0.315483 0.315483 0.31549 0.316011 0.316061
          0.316155 0.316289 0.316459 0.316665 0.316903 0.317169 0.317455 0.317751 0.318042 0.318314 0.318549 0.318731
          0.318846 0.318886 0.315184 0.315186 0.315193 0.315192 0.315467 0.315477 0.315478 0.31548 0.315483 0.315844
          0.315899 0.315994 0.316119 0.316272 0.316454 0.316662 0.316891 0.317136 0.317386 0.31763 0.317857 0.318051
          0.3182 0.318295 0.318327 0.315119 0.315123 0.315139 0.315181 0.31522 0.31529 0.315361 0.315443 0.315548
          0.315644 0.315755 0.315859 0.31598 0.316124 0.316292 0.316482 0.316689 0.316909 0.317133 0.31735 0.31755
          0.317721 0.317852 0.317934 0.317962 0.315039 0.315045 0.315064 0.315098 0.315144 0.315204 0.315274 0.315356
          0.315447 0.315545 0.315647 0.315755 0.315875 0.316016 0.316179 0.316363 0.316564 0.316776 0.31699 0.317199
          0.31739 0.317553 0.317678 0.317756 0.317783
        </DataArray>
        <DataArray type="Float32" Name="moleFrac_l^N2" NumberOfComponents="1" format="ascii">
          1.14733e-05 1.14777e-05 1.14727e-05 1.14753e-05 1.14797e-05 1.1477e-05 1.14808e-05 1.14778e-05 1.14727e-05 1.14724e-05 1.14723e-05 1.14721e-05
          1.14723e-05 1.14721e-05 1.14723e-05 1.14721e-05 1.1475e-05 1.14747e-05 1.15746e-05 1.15707e-05 1.158e-05 1.15763e-05 1.15915e-05 1.15877e-05
          1.16092e-05 1.16052e-05 1.16334e-05 1.16292e-05 1.16647e-05 1.16601e-05 1.17034e-05 1.16985e-05 1.17501e-05 1.17447e-05 1.18052e-05 1.17992e-05
          1.1869e-05 1.18622e-05 1.19411e-05 1.19332e-05 1.20139e-05 1.20044e-05 1.2049e-05 1.20372e-05 1.19997e-05 1.19821e-05 1.22382e-05 1.22232e-05
          2.14627e-05 2.10329e-05 1.14725e-05 1.1474e-05 1.14752e-05 1.14757e-05 1.14723e-05 1.14721e-05 1.14721e-05 1.14721e-05 1.14745e-05 1.15659e-05
          1.15715e-05 1.15826e-05 1.15997e-05 1.1623e-05 1.16531e-05 1.16903e-05 1.17351e-05 1.17879e-05 1.18487e-05 1.19167e-05 1.19844e-05 1.2013e-05
          1.19257e-05 1.2115e-05 2.09954e-05 1.14723e-05 1.14732e-05 1.14739e-05 1.14742e-05 1.14722e-05 1.14721e-05 1.14721e-05 1.14721e-05 1.14743e-05
          1.15604e-05 1.15657e-05 1.15764e-05 1.15927e-05 1.1615e-05 1.16437e-05 1.16792e-05 1.17218e-05 1.17718e-05 1.18294e-05 1.18935e-05 1.19578e-05
          1.19861e-05 1.18515e-05 1.1902e-05 2.04305e-05 1.14722e-05 1.14726e-05 1.1473e-05 1.14732e-05 1.14722e-05 1.14721e-05 1.14721e-05 1.14721e-05
          1.14741e-05 1.15542e-05 1.15592e-05 1.15693e-05 1.15846e-05 1.16055e-05 1.16323e-05 1.16654e-05 1.17052e-05 1.17518e-05 1.18052e-05 1.18652e-05
          1.19274e-05 1.1961e-05 1.18217e-05 1.16837e-05 1.91865e-05 1.1472e-05 1.1472e-05 1.14722e-05 1.14723e-05 1.14721e-05 1.14721e-05 1.14721e-05
          1.14721e-05 1.14739e-05 1.15474e-05 1.15521e-05 1.15613e-05 1.15754e-05 1.15947e-05 1.16193e-05 1.16497e-05 1.1686e-05 1.17285e-05 1.17772e-05
          1.18322e-05 1.18932e-05 1.19537e-05 1.19744e-05 1.2206e-05 1.12561e-05 1.14714e-05 1.14714e-05 1.14715e-05 1.14715e-05 1.14721e-05 1.14721e-05
          1.14721e-05 1.14721e-05 1.14737e-05 1.15402e-05 1.15445e-05 1.15529e-05 1.15656e-05 1.1583e-05 1.16052e-05 1.16325e-05 1.1665e-05 1.17028e-05
          1.1746e-05 1.17946e-05 1.18491e-05 1.19103e-05 1.19723e-05 1.19062e-05 1.19301e-05 1.14706e-05 1.14706e-05 1.14707e-05 1.14707e-05 1.14721e-05
          1.14721e-05 1.14721e-05 1.14721e-05 1.14735e-05 1.15328e-05 1.15366e-05 1.15441e-05 1.15555e-05 1.15709e-05 1.15905e-05 1.16145e-05 1.16429e-05
          1.16758e-05 1.17129e-05 1.1754e-05 1.17985e-05 1.18447e-05 1.18814e-05 1.18892e-05 1.18988e-05 1.14698e-05 1.14698e-05 1.14698e-05 1.14698e-05
          1.1472e-05 1.14721e-05 1.14721e-05 1.14721e-05 1.14733e-05 1.15254e-05 1.15287e-05 1.15353e-05 1.15452e-05 1.15587e-05 1.15757e-05 1.15965e-05