<?xml version="1.0"?>
<VTKFile type="UnstructuredGrid" version="0.1" byte_order="LittleEndian">
  <UnstructuredGrid>
    <Piece NumberOfCells="384" NumberOfPoints="425">
      <PointData Scalars="pressure_l">
        <DataArray type="Float32" Name="pressure_l" NumberOfComponents="1" format="ascii">
          100000 99990.6 99994.1 99965.1 99971.7 99940.9 99961.7 99927 99048.1 99045.2 99004.9 99003.3
          99004.3 99002.7 99004.5 99002.9 99026.5 99023.9 99836.7 99802.9 99881.4 99849.2 99976.3 99943.5
          100123 100089 100325 100289 100587 100548 100914 100872 101312 101266 101785 101733
          102340 102280 102982 102912 103727 103637 104605 104479 105662 105510 107828 107675
          188273 184588 99988.9 99938.2 99901.7 99883.3 99042.7 99003.2 99002.7 99002.9 99022.3 99763.2
          99808.7 99900.8 100042 100236 100488 100803 101184 101636 102163 102765 103441 104185
          105014 106721 184266 99979.8 99896.8 99848 99826.3 99039.3 99003.2 99002.7 99002.9 99020.6
          99717.3 99761.1 99849.1 99984.1 100170 100409 100708 101070 101499 101995 102559 103181
          103826 104360 104845 183434 99934.6 99821 99774.2 99753.9 99035.1 99003.1 99002.7 99002.8
          99019 99666.1 99707.2 99789.9 99916.5 100090 100314 100593 100929 101327 101787 102310
          102891 103516 104088 102903 168449 99726.6 99710 99682.7 99668.3 99030.3 99003.1 99002.7
          99002.8 99017.3 99610.5 99648.5 99724.7 99841.2 100001 100206 100460 100767 101128 101546
          102021 102561 103195 104098 107422 99137.5 99600 99594.8 99584.1 99576.1 99025.4 99003
          99002.7 99002.8 99015.6 99551.8 99586.3 99655.4 99760.6 99904.2 100089 100316 100590 100910
          101279 101696 102169 102719 103409 103488 103133 99495.1 99493 99488.4 99484.3 99020.7
          99002.9 99002.7 99002.8 99013.9 99491.4 99522.3 99583.8 99677.2 99804.3 99966.9 100167 100405
          100682 100997 101348 101731 102131 102464 102608 102621 99403.4 99402.4 99400.2 99397.8
          99016.7 99002.9 99002.7 99002.8 99012.3 99430.7 99457.9 99511.8 99593.4 99704 99844.7 100017
          100220 100454 100715 100999 101294 101575 101799 101930 101970 99322.3 99321.8 99320.5
          99318.9 99013.2 99002.8 99002.7 99002.7 99010.7 99370.9 99394.5 99441.1 99511.5 99606.3 99726.2
          99871.5 100042 100235 100447 100672 100896 101102 101265 101368 101402 99250.7 99250.3
          99249.5 99248.2 99010.3 99002.8 99002.7 99002.7 99009.1 99313.1 99333.4 99373.4 99433.4 99513.7
          99614.7 99736 99876.5 100034 100204 100380 100551 100704 100826 100904 100930 99187.6
          99187.3 99186.6 99185.6 99007.9 99002.7 99002.7 99002.7 99007.6 99257.9 99275.4 99309.6 99360.6
          99428.5 99512.9 99613.4 99728.5 99855.8 99991.1 100129 100260 100376 100468 100526 100546
          99132.2 99132 99131.3 99130.4 99005.9 99002.7 99002.7 99002.7 99006.2 99205.8 99221.1 99250.7
          99294.5 99352 99422.8 99506.2 99600.7 99703.8 99812 99920.3 100023 100112 100182 100226
          100242 99083.9 99083.6 99082.8 99081.7 99004.1 99002.7 99002.7 99002.7 99004.7 99156.5 99170.5
          99197.2 99235.7 99285.3 99345.6 99415.9 99494.5 99579.4 99667.4 99754.4 99835.8 99906.2 99960.9
          99995.5 100007 99041.9 99041.4 99040.2 99038.5 99002.1 99002.1 99002.2 99002.3 99003.2 99109.2
          99123.3 99149.7 99185.1 99229.3 99282.2 99343.1 99410.7 99482.8 99556.9 99629.6 99696.9 99754.7
          99799.4 99827.5 99837.2 99005.8 99005.3 99003.5 98999.1 98997.9 98997.6 99003.1 99014.5 99034.8
          99052.9 99081.3 99109.3 99143.3 99184.5 99233.1 99288.4 99349.4 99414.1 99480.1 99544.3 99603.5
          99654.2 99693.1 99717.6 99726 98975.6 98975 98973.1 98970.6 98969.1 98970.3 98975.9 98987.2
          99003.6 99023.9 99048.6 99077.3 99111 99151.2 99198.3 99251.8 99310.6 99372.8 99436.1 99497.7
          99554.2 99602.5 99639.6 99662.9 99670.9
        </DataArray>
        <DataArray type="Float32" Name="pressure_g" NumberOfComponents="1" format="ascii">
          100000 99990.6 99994.1 99965.1 99971.7 99940.9 99961.7 99927 99048.1 99045.2 99004.9 99003.3
          99004.3 99002.7 99004.5 99002.9 99026.5 99023.9 99836.7 99802.9 99881.4 99849.2 99976.3 99943.5
          100123 100089 100325 100289 100587 100548 100914 100872 101312 101266 101785 101733
          102340 102280 102982 102912 103727 103637 104605 104479 105662 105510 107828 107675
          188273 184588 99988.9 99938.2 99901.7 99883.3 99042.7 99003.2 99002.7 99002.9 99022.3 99763.2
          99808.7 99900.8 100042 100236 100488 100803 101184 101636 102163 102765 103441 104185
          105014 106721 184266 99979.8 99896.8 99848 99826.3 99039.3 99003.2 99002.7 99002.9 99020.6
          99717.3 99761.1 99849.1 99984.1 100170 100409 100708 101070 101499 101995 102559 103181
          103826 104360 104845 183434 99934.6 99821 99774.2 99753.9 99035.1 99003.1 99002.7 99002.8
          99019 99666.1 99707.2 99789.9 99916.5 100090 100314 100593 100929 101327 101787 102310
          102891 103516 104088 102903 168449 99726.6 99710 99682.7 99668.3 99030.3 99003.1 99002.7
          99002.8 99017.3 99610.5 99648.5 99724.7 99841.2 100001 100206 100460 100767 101128 101546
          102021 102561 103195 104098 107422 99137.5 99600 99594.8 99584.1 99576.1 99025.4 99003
          99002.7 99002.8 99015.6 99551.8 99586.3 99655.4 99760.6 99904.2 100089 100316 100590 100910
          101279 101696 102169 102719 103409 103488 103133 99495.1 99493 99488.4 99484.3 99020.7
          99002.9 99002.7 99002.8 99013.9 99491.4 99522.3 99583.8 99677.2 99804.3 99966.9 100167 100405
          100682 100997 101348 101731 102131 102464 102608 102621 99403.4 99402.4 99400.2 99397.8
          99016.7 99002.9 99002.7 99002.8 99012.3 99430.7 99457.9 99511.8 99593.4 99704 99844.7 100017
          100220 100454 100715 100999 101294 101575 101799 101930 101970 99322.3 99321.8 99320.5
          99318.9 99013.2 99002.8 99002.7 99002.7 99010.7 99370.9 99394.5 99441.1 99511.5 99606.3 99726.2
          99871.5 100042 100235 100447 100672 100896 101102 101265 101368 101402 99250.7 99250.3
          99249.5 99248.2 99010.3 99002.8 99002.7 99002.7 99009.1 99313.1 99333.4 99373.4 99433.4 99513.7
          99614.7 99736 99876.5 100034 100204 100380 100551 100704 100826 100904 100930 99187.6
          99187.3 99186.6 99185.6 99007.9 99002.7 99002.7 99002.7 99007.6 99257.9 99275.4 99309.6 99360.6
          99428.5 99512.9 99613.4 99728.5 99855.8 99991.1 100129 100260 100376 100468 100526 100546
          99132.2 99132 99131.3 99130.4 99005.9 99002.7 99002.7 99002.7 99006.2 99205.8 99221.1 99250.7
          99294.5 99352 99422.8 99506.2 99600.7 99703.8 99812 99920.3 100023 100112 100182 100226
          100242 99083.9 99083.6 99082.8 99081.7 99004.1 99002.7 99002.7 99002.7 99004.7 99156.5 99170.5
          99197.2 99235.7 99285.3 99345.6 99415.9 99494.5 99579.4 99667.4 99754.4 99835.8 99906.2 99960.9
          99995.5 100007 99041.9 99041.4 99040.2 99038.5 99002.1 99002.1 99002.2 99002.3 99003.2 99109.2
          99123.3 99149.7 99185.1 99229.3 99282.2 99343.1 99410.7 99482.8 99556.9 99629.6 99696.9 99754.7
          99799.4 99827.5 99837.2 99005.8 99005.3 99003.5 98999.1 98997.9 98997.6 99003.1 99014.5 99034.8
          99052.9 99081.3 99109.3 99143.3 99184.5 99233.1 99288.4 99349.4 99414.1 99480.1 99544.3 99603.5
          99654.2 99693.1 99717.6 99726 98975.6 98975 98973.1 98970.6 98969.1 98970.3 98975.9 98987.2
          99003.6 99023.9 99048.6 99077.3 99111 99151.2 99198.3 99251.8 99310.6 99372.8 99436.1 99497.7
          99554.2 99602.5 99639.6 99662.9 99670.9
        </DataArray>
        <DataArray type="Float32" Name="density_l" NumberOfComponents="1" format="ascii">
          997.048 997.048 997.048 997.048 997.048 997.048 997.048 997.048 997.047 997.047 997.047 997.047
          997.047 997.047 997.047 997.047 997.047 997.047 997.048 997.048 997.048 997.048 997.048 997.048
          997.048 997.048 997.048 997.048 997.048 997.048 997.048 997.048 997.048 997.048 997.048 997.048
          997.049 997.049 997.049 997.049 997.049 997.049 997.05 997.05 997.05 997.05 997.051 997.051
          997.087 997.086 997.048 997.048 997.048 997.048 997.047 997.047 997.047 997.047 997.047 997.048
          997.048 997.048 997.048 997.048 997.048 997.048 997.048 997.048 997.049 997.049 997.049 997.05
          997.05 997.051 997.086 997.048 997.048 997.048 997.048 997.047 997.047 997.047 997.047 997.047
          997.048 997.048 997.048 997.048 997.048 997.048 997.048 997.048 997.048 997.049 997.049 997.049
          997.049 997.05 997.05 997.085 997.048 997.048 997.048 997.048 997.047 997.047 997.047 997.047
          997.047 997.048 997.048 997.048 997.048 997.048 997.048 997.048 997.048 997.048 997.048 997.049
          997.049 997.049 997.049 997.049 997.078 997.048 997.048 997.048 997.048 997.047 997.047 997.047
          997.047 997.047 997.047 997.047 997.048 997.048 997.048 997.048 997.048 997.048 997.048 997.048
          997.049 997.049 997.049 997.049 997.051 997.047 997.047 997.047 997.047 997.047 997.047 997.047
          997.047 997.047 997.047 997.047 997.047 997.047 997.048 997.048 997.048 997.048 997.048 997.048
          997.048 997.048 997.049 997.049 997.049 997.049 997.049 997.047 997.047 997.047 997.047 997.047
          997.047 997.047 997.047 997.047 997.047 997.047 997.047 997.048 997.048 997.048 997.048 997.048
          997.048 997.048 997.048 997.048 997.049 997.049 997.049 997.049 997.047 997.047 997.047 997.047
          997.047 997.047 997.047 997.047 997.047 997.047 997.047 997.047 997.047 997.048 997.048 997.048
          997.048 997.048 997.048 997.048 997.048 997.048 997.048 997.049 997.049 997.047 997.047 997.047
          997.047 997.047 997.047 997.047 997.047 997.047 997.047 997.047 997.047 997.047 997.047 997.048
          997.048 997.048 997.048 997.048 997.048 997.048 997.048 997.048 997.048 997.048 997.047 997.047
          997.047 997.047 997.047 997.047 997.047 997.047 997.047 997.047 997.047 997.047 997.047 997.047
          997.047 997.048 997.048 997.048 997.048 997.048 997.048 997.048 997.048 997.048 997.048 997.047
          997.047 997.047 997.047 997.047 997.047 997.047 997.047 997.047 997.047 997.047 997.047 997.047
          997.047 997.047 997.047 997.048 997.048 997.048 997.048 997.048 997.048 997.048 997.048 997.048
          997.047 997.047 997.047 997.047 997.047 997.047 997.047 997.047 997.047 997.047 997.047 997.047
          997.047 997.047 997.047 997.047 997.047 997.048 997.048 997.048 997.048 997.048 997.048 997.048
          997.048 997.047 997.047 997.047 997.047 997.047 997.047 997.047 997.047 997.047 997.047 997.047
          997.047 997.047 997.047 997.047 997.047 997.047 997.047 997.048 997.048 997.048 997.048 997.048
          997.048 997.048 997.047 997.047 997.047 997.047 997.047 997.047 997.047 997.047 997.047 997.047
          997.047 997.047 997.047 997.047 997.047 997.047 997.047 997.047 997.047 997.047 997.048 997.048
          997.048 997.048 997.048 997.047 997.047 997.047 997.047 997.047 997.047 997.047 997.047 997.047
          997.047 997.047 997.047 997.047 997.047 997.047 997.047 997.047 997.047 997.047 997.047 997.047
          997.047 997.048 997.048 997.048 997.047 997.047 997.047 997.047 997.047 997.047 997.047 997.047
          997.047 997.047 997.047 997.047 997.047 997.047 997.047 997.047 997.047 997.047 997.047 997.047
          997.047 997.047 997.047 997.048 997.048
        </DataArray>
        <DataArray type="Float32" Name="density_g" NumberOfComponents="1" format="ascii">
          1.13002 1.12991 1.12995 1.12962 1.12969 1.12935 1.12958 1.12919 1.11926 1.11922 1.11877 1.11875
          1.11876 1.11874 1.11876 1.11875 1.11901 1.11898 1.12817 1.12779 1.12867 1.12831 1.12975 1.12938
          1.1314 1.13102 1.13368 1.13328 1.13665 1.13621 1.14034 1.13987 1.14484 1.14432 1.15019 1.1496
          1.15645 1.15578 1.16371 1.16292 1.17213 1.17111 1.18205 1.18063 1.194 1.19228 1.21847 1.21675
          2.12754 2.0859 1.12989 1.12932 1.1289 1.1287 1.1192 1.11875 1.11874 1.11875 1.11897 1.12734
          1.12785 1.12889 1.13049 1.13269 1.13553 1.13908 1.14339 1.1485 1.15445 1.16126 1.1689 1.17731
          1.18667 1.20597 2.08226 1.12979 1.12885 1.1283 1.12805 1.11916 1.11875 1.11874 1.11875 1.11895
          1.12682 1.12731 1.12831 1.12983 1.13193 1.13464 1.13802 1.14211 1.14695 1.15256 1.15893 1.16596
          1.17325 1.17928 1.18476 2.07285 1.12927 1.12799 1.12746 1.12723 1.11911 1.11875 1.11874 1.11875
          1.11893 1.12624 1.12671 1.12764 1.12907 1.13103 1.13356 1.13671 1.14052 1.14501 1.15021 1.15611
          1.16268 1.16975 1.17621 1.16282 1.90352 1.12692 1.12674 1.12643 1.12627 1.11906 1.11875 1.11874
          1.11875 1.11891 1.12561 1.12604 1.1269 1.12822 1.13002 1.13234 1.13522 1.13868 1.14276 1.14748
          1.15285 1.15896 1.16612 1.17632 1.21389 1.12027 1.12549 1.12544 1.12531 1.12522 1.119 1.11875
          1.11874 1.11875 1.11889 1.12495 1.12534 1.12612 1.12731 1.12893 1.13102 1.13359 1.13668 1.1403
          1.14446 1.14918 1.15453 1.16074 1.16853 1.16943 1.16541 1.12431 1.12429 1.12423 1.12419 1.11895
          1.11875 1.11874 1.11874 1.11887 1.12427 1.12462 1.12531 1.12637 1.1278 1.12964 1.1319 1.13459
          1.13772 1.14128 1.14525 1.14957 1.1541 1.15786 1.15949 1.15963 1.12327 1.12326 1.12324 1.12321
          1.1189 1.11875 1.11874 1.11874 1.11885 1.12358 1.12389 1.1245 1.12542 1.12667 1.12826 1.1302
          1.1325 1.13514 1.1381 1.14131 1.14464 1.14781 1.15034 1.15183 1.15228 1.12236 1.12235 1.12234
          1.12232 1.11886 1.11875 1.11874 1.11874 1.11883 1.12291 1.12317 1.1237 1.12449 1.12556 1.12692
          1.12856 1.13049 1.13267 1.13507 1.13761 1.14014 1.14246 1.14431 1.14547 1.14586 1.12155 1.12154
          1.12153 1.12152 1.11883 1.11874 1.11874 1.11874 1.11882 1.12225 1.12248 1.12293 1.12361 1.12452
          1.12566 1.12703 1.12862 1.1304 1.13232 1.1343 1.13624 1.13797 1.13935 1.14022 1.14052 1.12083
          1.12083 1.12082 1.12081 1.1188 1.11874 1.11874 1.11874 1.1188 1.12163 1.12183 1.12221 1.12279
          1.12356 1.12451 1.12565 1.12695 1.12838 1.12991 1.13147 1.13295 1.13427 1.1353 1.13596 1.13619
          1.12021 1.12021 1.1202 1.12019 1.11878 1.11874 1.11874 1.11874 1.11878 1.12104 1.12121 1.12155
          1.12204 1.12269 1.12349 1.12443 1.1255 1.12667 1.12789 1.12911 1.13027 1.13128 1.13207 1.13257
          1.13274 1.11966 1.11966 1.11965 1.11964 1.11876 1.11874 1.11874 1.11874 1.11877 1.12048 1.12064
          1.12094 1.12138 1.12194 1.12262 1.12341 1.1243 1.12526 1.12625 1.12724 1.12816 1.12895 1.12957
          1.12996 1.1301 1.11919 1.11918 1.11917 1.11915 1.11874 1.11874 1.11874 1.11874 1.11875 1.11995
          1.12011 1.12041 1.1208 1.1213 1.1219 1.12259 1.12335 1.12417 1.12501 1.12583 1.12659 1.12724
          1.12775 1.12806 1.12817 1.11878 1.11877 1.11875 1.1187 1.11869 1.11869 1.11875 1.11888 1.11911
          1.11931 1.11963 1.11995 1.12033 1.1208 1.12135 1.12197 1.12266 1.12339 1.12414 1.12486 1.12553
          1.12611 1.12655 1.12682 1.12692 1.11844 1.11843 1.11841 1.11838 1.11836 1.11838 1.11844 1.11857
          1.11875 1.11898 1.11926 1.11959 1.11997 1.12042 1.12095 1.12156 1.12222 1.12293 1.12364 1.12434
          1.12498 1.12552 1.12594 1.1262 1.12629
        </DataArray>
        <DataArray type="Float32" Name="saturation_l" NumberOfComponents="1" format="ascii">
          7.28882e-06 7.28882e-06 7.28868e-06 7.28868e-06 7.28882e-06 7.28868e-06 7.28882e-06 7.28868e-06 7.28869e-06 7.28869e-06 7.28869e-06 7.28869e-06
          7.28869e-06 7.28869e-06 7.28869e-06 7.28869e-06 7.28869e-06 7.28869e-06 7.28882e-06 7.28868e-06 7.28882e-06 7.28868e-06 7.28882e-06 7.28868e-06
          7.28882e-06 7.28868e-06 7.28882e-06 7.28868e-06 7.28882e-06 7.28868e-06 7.28882e-06 7.28868e-06 7.28882e-06 7.28868e-06 7.28882e-06 7.28868e-06
          7.28881e-06 7.28868e-06 7.28881e-06 7.28867e-06 7.28881e-06 7.28867e-06 7.36042e-06 7.34369e-06 0.00223798 0.00197029 0.431222 0.371005
          0.99557 0.995199 7.28868e-06 7.28868e-06 7.28868e-06 7.28868e-06 7.28869e-06 7.28869e-06 7.28869e-06 7.28869e-06 7.28869e-06 7.28868e-06
          7.28868e-06 7.28868e-06 7.28868e-06 7.28868e-06 7.28868e-06 7.28868e-06 7.28868e-06 7.28868e-06 7.28868e-06 7.28867e-06 7.28867e-06 7.3149e-06
          0.00150826 0.370785 0.995308 7.28868e-06 7.28868e-06 7.28868e-06 7.28868e-06 7.28869e-06 7.28869e-06 7.28869e-06 7.28869e-06 7.28869e-06
          7.28868e-06 7.28868e-06 7.28868e-06 7.28868e-06 7.28868e-06 7.28868e-06 7.28868e-06 7.28868e-06 7.28868e-06 7.28868e-06 7.28868e-06 7.28867e-06
          7.28977e-06 0.000364135 0.352187 0.995661 7.28868e-06 7.28868e-06 7.28868e-06 7.28868e-06 7.28869e-06 7.28869e-06 7.28869e-06 7.28869e-06
          7.28869e-06 7.28868e-06 7.28868e-06 7.28868e-06 7.28868e-06 7.28868e-06 7.28868e-06 7.28868e-06 7.28868e-06 7.28868e-06 7.28868e-06 7.28868e-06
          7.28867e-06 7.2887e-06 3.79376e-05 0.219842 0.993845 7.28868e-06 7.28868e-06 7.28868e-06 7.28868e-06 7.28869e-06 7.28869e-06 7.28869e-06
          7.28869e-06 7.28869e-06 7.28868e-06 7.28868e-06 7.28868e-06 7.28868e-06 7.28868e-06 7.28868e-06 7.28868e-06 7.28868e-06 7.28868e-06 7.28868e-06
          7.28868e-06 7.28868e-06 7.28867e-06 7.29891e-06 0.000619768 0.0886416 7.28868e-06 7.28868e-06 7.28869e-06 7.28869e-06 7.28869e-06 7.28869e-06
          7.28869e-06 7.28869e-06 7.28869e-06 7.28869e-06 7.28869e-06 7.28868e-06 7.28868e-06 7.28868e-06 7.28868e-06 7.28868e-06 7.28868e-06 7.28868e-06
          7.28868e-06 7.28868e-06 7.28868e-06 7.28867e-06 7.28867e-06 7.28867e-06 7.28867e-06 7.28869e-06 7.28869e-06 7.28869e-06 7.28869e-06 7.28869e-06
          7.28869e-06 7.28869e-06 7.28869e-06 7.28869e-06 7.28869e-06 7.28869e-06 7.28869e-06 7.28868e-06 7.28868e-06 7.28868e-06 7.28868e-06 7.28868e-06
          7.28868e-06 7.28868e-06 7.28868e-06 7.28868e-06 7.28868e-06 7.28868e-06 7.28868e-06 7.28868e-06 7.28869e-06 7.28869e-06 7.28869e-06 7.28869e-06
          7.28869e-06 7.28869e-06 7.28869e-06 7.28869e-06 7.28869e-06 7.28869e-06 7.28869e-06 7.28869e-06 7.28868e-06 7.28868e-06 7.28868e-06 7.28868e-06
          7.28868e-06 7.28868e-06 7.28868e-06 7.28868e-06 7.28868e-06 7.28868e-06 7.28868e-06 7.28868e-06 7.28868e-06 7.28869e-06 7.28869e-06 7.28869e-06
          7.28869e-06 7.28869e-06 7.28869e-06 7.28869e-06 7.28869e-06 7.28869e-06 7.28869e-06 7.28869e-06 7.28869e-06 7.28869e-06 7.28868e-06 7.28868e-06
          7.28868e-06 7.28868e-06 7.28868e-06 7.28868e-06 7.28868e-06 7.28868e-06 7.28868e-06 7.28868e-06 7.28868e-06 7.28868e-06 7.28869e-06 7.28869e-06
          7.28869e-06 7.28869e-06 7.28869e-06 7.28869e-06 7.28869e-06 7.28869e-06 7.28869e-06 7.28869e-06 7.28869e-06 7.28869e-06 7.28869e-06 7.28869e-06
          7.28868e-06 7.28868e-06 7.28868e-06 7.28868e-06 7.28868e-06 7.28868e-06 7.28868e-06 7.28868e-06 7.28868e-06 7.28868e-06 7.28868e-06 7.28869e-06
          7.28869e-06 7.28869e-06 7.28869e-06 7.28869e-06 7.28869e-06 7.28869e-06 7.28869e-06 7.28869e-06 7.28869e-06 7.28869e-06 7.28869e-06 7.28869e-06
          7.28869e-06 7.28869e-06 7.28868e-06 7.28868e-06 7.28868e-06 7.28868e-06 7.28868e-06 7.28868e-06 7.28868e-06 7.28868e-06 7.28868e-06 7.28868e-06
          7.28869e-06 7.28869e-06 7.28869e-06 7.28869e-06 7.28869e-06 7.28869e-06 7.28869e-06 7.28869e-06 7.28869e-06 7.28869e-06 7.28869e-06 7.28869e-06
          7.28869e-06 7.28869e-06 7.28869e-06 7.28869e-06 7.28868e-06 7.28868e-06 7.28868e-06 7.28868e-06 7.28868e-06 7.28868e-06 7.28868e-06 7.28868e-06
          7.28868e-06 7.28869e-06 7.28869e-06 7.28869e-06 7.28869e-06 7.28869e-06 7.28869e-06 7.28869e-06 7.28869e-06 7.28869e-06 7.28869e-06 7.28869e-06
          7.28869e-06 7.28869e-06 7.28869e-06 7.28869e-06 7.28869e-06 7.28869e-06 7.28869e-06 7.28868e-06 7.28868e-06 7.28868e-06 7.28868e-06 7.28868e-06
          7.28868e-06 7.28868e-06 7.28869e-06 7.28869e-06 7.28869e-06 7.28869e-06 7.28869e-06 7.28869e-06 7.28869e-06 7.28869e-06 7.28869e-06 7.28869e-06
          7.28869e-06 7.28869e-06 7.28869e-06 7.28869e-06 7.28869e-06 7.28869e-06 7.28869e-06 7.28869e-06 7.28869e-06 7.28868e-06 7.28868e-06 7.28868e-06
          7.28868e-06 7.28868e-06 7.28868e-06 7.28869e-06 7.28869e-06 7.28869e-06 7.28869e-06 7.28876e-06 7.28876e-06 7.28876e-06 7.28876e-06 7.28876e-06
          7.28869e-06 7.28869e-06 7.28869e-06 7.28869e-06 7.28869e-06 7.28869e-06 7.28869e-06 7.28869e-06 7.28869e-06 7.28869e-06 7.28869e-06 7.28868e-06
          7.28868e-06 7.28868e-06 7.28868e-06 7.28868e-06 7.28855e-06 7.28855e-06 7.28855e-06 7.28855e-06 7.28855e-06 7.28855e-06 7.28855e-06 7.28855e-06
          7.28855e-06 7.28855e-06 7.28855e-06 7.28855e-06 7.28855e-06 7.28855e-06 7.28855e-06 7.28855e-06 7.28855e-06 7.28855e-06 7.28855e-06 7.28855e-06
          7.28855e-06 7.28855e-06 7.28855e-06 7.28855e-06 7.28855e-06
        </DataArray>
        <DataArray type="Float32" Name="saturation_g" NumberOfComponents="1" format="ascii">
          0.999993 0.999993 0.999993 0.999993 0.999993 0.999993 0.999993 0.999993 0.999993 0.999993 0.999993 0.999993
          0.999993 0.999993 0.999993 0.999993 0.999993 0.999993 0.999993 0.999993 0.999993 0.999993 0.999993 0.999993
          0.999993 0.999993 0.999993 0.999993 0.999993 0.999993 0.999993 0.999993 0.999993 0.999993 0.999993 0.999993
          0.999993 0.999993 0.999993 0.999993 0.999993 0.999993 0.999993 0.999993 0.997762 0.99803 0.568778 0.628995
          0.00442963 0.00480127 0.999993 0.999993 0.999993 0.999993 0.999993 0.999993 0.999993 0.999993 0.999993 0.999993
          0.999993 0.999993 0.999993 0.999993 0.999993 0.999993 0.999993 0.999993 0.999993 0.999993 0.999993 0.999993
          0.998492 0.629215 0.00469156 0.999993 0.999993 0.999993 0.999993 0.999993 0.999993 0.999993 0.999993 0.999993
          0.999993 0.999993 0.999993 0.999993 0.999993 0.999993 0.999993 0.999993 0.999993 0.999993 0.999993 0.999993
          0.999993 0.999636 0.647813 0.0043387 0.999993 0.999993 0.999993 0.999993 0.999993 0.999993 0.999993 0.999993
          0.999993 0.999993 0.999993 0.999993 0.999993 0.999993 0.999993 0.999993 0.999993 0.999993 0.999993 0.999993
          0.999993 0.999993 0.999962 0.780158 0.00615472 0.999993 0.999993 0.999993 0.999993 0.999993 0.999993 0.999993
          0.999993 0.999993 0.999993 0.999993 0.999993 0.999993 0.999993 0.999993 0.999993 0.999993 0.999993 0.999993
          0.999993 0.999993 0.999993 0.999993 0.99938 0.911358 0.999993 0.999993 0.999993 0.999993 0.999993 0.999993
          0.999993 0.999993 0.999993 0.999993 0.999993 0.999993 0.999993 0.999993 0.999993 0.999993 0.999993 0.999993
          0.999993 0.999993 0.999993 0.999993 0.999993 0.999993 0.999993 0.999993 0.999993 0.999993 0.999993 0.999993
          0.999993 0.999993 0.999993 0.999993 0.999993 0.999993 0.999993 0.999993 0.999993 0.999993 0.999993 0.999993
          0.999993 0.999993 0.999993 0.999993 0.999993 0.999993 0.999993 0.999993 0.999993 0.999993 0.999993 0.999993
          0.999993 0.999993 0.999993 0.999993 0.999993 0.999993 0.999993 0.999993 0.999993 0.999993 0.999993 0.999993
          0.999993 0.999993 0.999993 0.999993 0.999993 0.999993 0.999993 0.999993 0.999993 0.999993 0.999993 0.999993
          0.999993 0.999993 0.999993 0.999993 0.999993 0.999993 0.999993 0.999993 0.999993 0.999993 0.999993 0.999993
          0.999993 0.999993 0.999993 0.999993 0.999993 0.999993 0.999993 0.999993 0.999993 0.999993 0.999993 0.999993
          0.999993 0.999993 0.999993 0.999993 0.999993 0.999993 0.999993 0.999993 0.999993 0.999993 0.999993 0.999993
          0.999993 0.999993 0.999993 0.999993 0.999993 0.999993 0.999993 0.999993 0.999993 0.999993 0.999993 0.999993
          0.999993 0.999993 0.999993 0.999993 0.999993 0.999993 0.999993 0.999993 0.999993 0.999993 0.999993 0.999993
          0.999993 0.999993 0.999993 0.999993 0.999993 0.999993 0.999993 0.999993 0.999993 0.999993 0.999993 0.999993
          0.999993 0.999993 0.999993 0.999993 0.999993 0.999993 0.999993 0.999993 0.999993 0.999993 0.999993 0.999993
          0.999993 0.999993 0.999993 0.999993 0.999993 0.999993 0.999993 0.999993 0.999993 0.999993 0.999993 0.999993
          0.999993 0.999993 0.999993 0.999993 0.999993 0.999993 0.999993 0.999993 0.999993 0.999993 0.999993 0.999993
          0.999993 0.999993 0.999993 0.999993 0.999993 0.999993 0.999993 0.999993 0.999993 0.999993 0.999993 0.999993
          0.999993 0.999993 0.999993 0.999993 0.999993 0.999993 0.999993 0.999993 0.999993 0.999993 0.999993 0.999993
          0.999993 0.999993 0.999993 0.999993 0.999993 0.999993 0.999993 0.999993 0.999993 0.999993 0.999993 0.999993
          0.999993 0.999993 0.999993 0.999993 0.999993 0.999993 0.999993 0.999993 0.999993 0.999993 0.999993 0.999993
          0.999993 0.999993 0.999993 0.999993 0.999993 0.999993 0.999993 0.999993 0.999993 0.999993 0.999993 0.999993
          0.999993 0.999993 0.999993 0.999993 0.999993 0.999993 0.999993 0.999993 0.999993 0.999993 0.999993 0.999993
          0.999993 0.999993 0.999993 0.999993 0.999993 0.999993 0.999993 0.999993 0.999993 0.999993 0.999993 0.999993
          0.999993 0.999993 0.999993 0.999993 0.999993
        </DataArray>
        <DataArray type="Float32" Name="relativePerm_l" NumberOfComponents="1" format="ascii">
          4.72248e-10 4.72248e-10 4.7223e-10 4.7223e-10 4.72248e-10 4.7223e-10 4.72248e-10 4.7223e-10 4.7223e-10 4.7223e-10 4.7223e-10 4.7223e-10
          4.7223e-10 4.7223e-10 4.7223e-10 4.7223e-10 4.7223e-10 4.7223e-10 4.72248e-10 4.7223e-10 4.72248e-10 4.7223e-10 4.72248e-10 4.7223e-10
          4.72248e-10 4.7223e-10 4.72248e-10 4.7223e-10 4.72248e-10 4.7223e-10 4.72248e-10 4.7223e-10 4.72247e-10 4.72229e-10 4.72247e-10 4.72229e-10
          4.72247e-10 4.72229e-10 4.72247e-10 4.72229e-10 4.72246e-10 4.72228e-10 4.81571e-10 4.79385e-10 4.47694e-05 3.46771e-05 0.427401 0.363838
          0.999824 0.999793 4.7223e-10 4.7223e-10 4.7223e-10 4.7223e-10 4.7223e-10 4.7223e-10 4.7223e-10 4.7223e-10 4.7223e-10 4.7223e-10
          4.7223e-10 4.7223e-10 4.7223e-10 4.7223e-10 4.7223e-10 4.7223e-10 4.7223e-10 4.72229e-10 4.72229e-10 4.72229e-10 4.72229e-10 4.75634e-10
          2.0297e-05 0.363606 0.999802 4.7223e-10 4.7223e-10 4.7223e-10 4.7223e-10 4.7223e-10 4.7223e-10 4.7223e-10 4.7223e-10 4.7223e-10
          4.7223e-10 4.7223e-10 4.7223e-10 4.7223e-10 4.7223e-10 4.7223e-10 4.7223e-10 4.7223e-10 4.72229e-10 4.72229e-10 4.72229e-10 4.72229e-10
          4.7237e-10 1.17969e-06 0.343975 0.999831 4.7223e-10 4.7223e-10 4.7223e-10 4.7223e-10 4.7223e-10 4.7223e-10 4.7223e-10 4.7223e-10
          4.7223e-10 4.7223e-10 4.7223e-10 4.7223e-10 4.7223e-10 4.7223e-10 4.7223e-10 4.7223e-10 4.7223e-10 4.72229e-10 4.72229e-10 4.72229e-10
          4.72229e-10 4.72233e-10 1.27946e-08 0.204278 0.999658 4.7223e-10 4.7223e-10 4.7223e-10 4.7223e-10 4.7223e-10 4.7223e-10 4.7223e-10
          4.7223e-10 4.7223e-10 4.7223e-10 4.7223e-10 4.7223e-10 4.7223e-10 4.7223e-10 4.7223e-10 4.7223e-10 4.7223e-10 4.7223e-10 4.72229e-10
          4.72229e-10 4.72229e-10 4.72229e-10 4.73556e-10 3.41962e-06 0.0657884 4.7223e-10 4.7223e-10 4.7223e-10 4.7223e-10 4.7223e-10 4.7223e-10
          4.7223e-10 4.7223e-10 4.7223e-10 4.7223e-10 4.7223e-10 4.7223e-10 4.7223e-10 4.7223e-10 4.7223e-10 4.7223e-10 4.7223e-10 4.7223e-10
          4.72229e-10 4.72229e-10 4.72229e-10 4.72229e-10 4.72229e-10 4.72229e-10 4.72229e-10 4.7223e-10 4.7223e-10 4.7223e-10 4.7223e-10 4.7223e-10
          4.7223e-10 4.7223e-10 4.7223e-10 4.7223e-10 4.7223e-10 4.7223e-10 4.7223e-10 4.7223e-10 4.7223e-10 4.7223e-10 4.7223e-10 4.7223e-10
          4.7223e-10 4.7223e-10 4.72229e-10 4.72229e-10 4.72229e-10 4.72229e-10 4.72229e-10 4.72229e-10 4.7223e-10 4.7223e-10 4.7223e-10 4.7223e-10
          4.7223e-10 4.7223e-10 4.7223e-10 4.7223e-10 4.7223e-10 4.7223e-10 4.7223e-10 4.7223e-10 4.7223e-10 4.7223e-10 4.7223e-10 4.7223e-10
          4.7223e-10 4.7223e-10 4.7223e-10 4.7223e-10 4.72229e-10 4.72229e-10 4.72229e-10 4.72229e-10 4.72229e-10 4.7223e-10 4.7223e-10 4.7223e-10
          4.7223e-10 4.7223e-10 4.7223e-10 4.7223e-10 4.7223e-10 4.7223e-10 4.7223e-10 4.7223e-10 4.7223e-10 4.7223e-10 4.7223e-10 4.7223e-10
          4.7223e-10 4.7223e-10 4.7223e-10 4.7223e-10 4.7223e-10 4.7223e-10 4.7223e-10 4.72229e-10 4.72229e-10 4.72229e-10 4.7223e-10 4.7223e-10
          4.7223e-10 4.7223e-10 4.7223e-10 4.7223e-10 4.7223e-10 4.7223e-10 4.7223e-10 4.7223e-10 4.7223e-10 4.7223e-10 4.7223e-10 4.7223e-10
          4.7223e-10 4.7223e-10 4.7223e-10 4.7223e-10 4.7223e-10 4.7223e-10 4.7223e-10 4.7223e-10 4.7223e-10 4.7223e-10 4.7223e-10 4.7223e-10
          4.7223e-10 4.7223e-10 4.7223e-10 4.7223e-10 4.7223e-10 4.7223e-10 4.7223e-10 4.7223e-10 4.7223e-10 4.7223e-10 4.7223e-10 4.7223e-10
          4.7223e-10 4.7223e-10 4.7223e-10 4.7223e-10 4.7223e-10 4.7223e-10 4.7223e-10 4.7223e-10 4.7223e-10 4.7223e-10 4.7223e-10 4.7223e-10
          4.7223e-10 4.7223e-10 4.7223e-10 4.7223e-10 4.7223e-10 4.7223e-10 4.7223e-10 4.7223e-10 4.7223e-10 4.7223e-10 4.7223e-10 4.7223e-10
          4.7223e-10 4.7223e-10 4.7223e-10 4.7223e-10 4.7223e-10 4.7223e-10 4.7223e-10 4.7223e-10 4.7223e-10 4.7223e-10 4.7223e-10 4.7223e-10
          4.7223e-10 4.7223e-10 4.7223e-10 4.7223e-10 4.7223e-10 4.7223e-10 4.7223e-10 4.7223e-10 4.7223e-10 4.7223e-10 4.7223e-10 4.7223e-10
          4.7223e-10 4.7223e-10 4.7223e-10 4.7223e-10 4.7223e-10 4.7223e-10 4.7223e-10 4.7223e-10 4.7223e-10 4.7223e-10 4.7223e-10 4.7223e-10
          4.7223e-10 4.7223e-10 4.7223e-10 4.7223e-10 4.7223e-10 4.7223e-10 4.7223e-10 4.7223e-10 4.7223e-10 4.7223e-10 4.7223e-10 4.7223e-10
          4.7223e-10 4.7223e-10 4.7223e-10 4.7223e-10 4.7223e-10 4.7223e-10 4.7223e-10 4.7223e-10 4.7223e-10 4.7223e-10 4.7223e-10 4.7223e-10
          4.7223e-10 4.7223e-10 4.7223e-10 4.7223e-10 4.7223e-10 4.7223e-10 4.7223e-10 4.72239e-10 4.72239e-10 4.72239e-10 4.72239e-10 4.72239e-10
          4.7223e-10 4.7223e-10 4.7223e-10 4.7223e-10 4.7223e-10 4.7223e-10 4.7223e-10 4.7223e-10 4.7223e-10 4.7223e-10 4.7223e-10 4.7223e-10