<?xml version="1.0"?>
<VTKFile type="UnstructuredGrid" version="0.1" byte_order="LittleEndian">
  <UnstructuredGrid>
    <Piece NumberOfCells="384" NumberOfPoints="425">
      <PointData Scalars="pressure_l">
        <DataArray type="Float32" Name="pressure_l" NumberOfComponents="1" format="ascii">
          100011 100048 100005 100028 100066 100043 100076 100050 100005 100003 100002 100000
          100002 100000 100002 100000 100025 100023 100893 100858 100940 100907 101040 101007
          101194 101159 101405 101368 101677 101638 102015 101972 102422 102375 102903 102850
          103461 103402 104103 104032 104840 104751 105702 105578 106727 106576 108787 108657
          188387 184678 100003 100017 100027 100031 100002 100000 100000 100000 100021 100817
          100865 100962 101111 101314 101576 101901 102291 102752 103283 103886 104557 105288
          106090 107724 184354 100002 100010 100016 100019 100001 100000 100000 100000 100019
          100769 100815 100908 101050 101244 101494 101803 102175 102612 103114 103680 104300
          104936 105450 105887 183554 100001 100004 100008 100009 100001 100000 100000 100000
          100018 100715 100759 100846 100979 101161 101395 101684 102030 102437 102904 103430
          104012 104633 105192 104003 168745 99998.8 99999.5 100001 100002 100000 100000 100000
          100000 100016 100656 100696 100777 100900 101067 101282 101546 101863 102233 102659
          103140 103683 104317 105216 108509 100311 99993.5 99993.8 99994.3 99994.7 100000 100000
          100000 100000 100014 100594 100630 100703 100815 100966 101159 101396 101680 102009
          102386 102811 103289 103842 104532 104618 104266 99987.1 99987.2 99987.5 99987.7 99999.7
          100000 100000 100000 100012 100529 100562 100627 100726 100860 101031 101240 101488
          101774 102098 102457 102846 103251 103588 103736 103750 99979.7 99979.8 99979.9 99980.1
          99999.5 100000 100000 100000 100010 100464 100493 100550 100637 100754 100902 101083
          101295 101538 101808 102100 102401 102688 102917 103051 103092 99971.2 99971.2 99971.4
          99971.5 99999.2 100000 100000 100000 100009 100400 100425 100475 100550 100650 100777
          100930 101109 101310 101531 101763 101994 102205 102373 102479 102514 99961.4 99961.5
          99961.6 99961.8 99998.9 100000 100000 100000 100007 100338 100359 100402 100466 100552
          100659 100788 100936 101101 101278 101461 101639 101798 101923 102003 102031 99950.2
          99950.3 99950.5 99950.7 99998.4 100000 100000 100000 100005 100278 100297 100334 100389
          100462 100552 100658 100780 100914 101056 101200 101338 101459 101554 101615 101636
          99937.4 99937.5 99937.8 99938 99997.9 100000 100000 100000 100004 100222 100238 100271
          100318 100380 100456 100545 100646 100755 100869 100983 101091 101185 101258 101304
          101320 99922.6 99922.9 99923.5 99923.8 99997.3 99999.9 100000 100000 100002 100168 100184
          100213 100256 100309 100375 100450 100534 100625 100718 100810 100896 100971 101028
          101065 101077 99905.4 99906.2 99908.4 99907.9 99995.1 99998.1 99998.6 99999.1 100000 100115
          100132 100162 100202 100250 100308 100374 100446 100523 100602 100680 100751 100813
          100860 100890 100900 99884.7 99886.2 99891.1 99904.7 99917.1 99939.1 99961.7 99987.7 100021
          100051 100087 100120 100158 100203 100256 100316 100382 100452 100522 100591 100654
          100708 100750 100776 100785 99859.6 99861.3 99867.5 99878.2 99892.9 99911.9 99934.3 99960.1
          99989.2 100020 100052 100087 100125 100169 100221 100279 100342 100409 100477 100543
          100604 100655 100695 100719 100728
        </DataArray>
        <DataArray type="Float32" Name="pressure_g" NumberOfComponents="1" format="ascii">
          100011 100048 100005 100028 100066 100043 100076 100050 100005 100003 100002 100000
          100002 100000 100002 100000 100025 100023 100893 100858 100940 100907 101040 101007
          101194 101159 101405 101368 101677 101638 102015 101972 102422 102375 102903 102850
          103461 103402 104103 104032 104840 104751 105702 105578 106727 106576 108787 108657
          188387 184678 100003 100017 100027 100031 100002 100000 100000 100000 100021 100817
          100865 100962 101111 101314 101576 101901 102291 102752 103283 103886 104557 105288
          106090 107724 184354 100002 100010 100016 100019 100001 100000 100000 100000 100019
          100769 100815 100908 101050 101244 101494 101803 102175 102612 103114 103680 104300
          104936 105450 105887 183554 100001 100004 100008 100009 100001 100000 100000 100000
          100018 100715 100759 100846 100979 101161 101395 101684 102030 102437 102904 103430
          104012 104633 105192 104003 168745 99998.8 99999.5 100001 100002 100000 100000 100000
          100000 100016 100656 100696 100777 100900 101067 101282 101546 101863 102233 102659
          103140 103683 104317 105216 108509 100311 99993.5 99993.8 99994.3 99994.7 100000 100000
          100000 100000 100014 100594 100630 100703 100815 100966 101159 101396 101680 102009
          102386 102811 103289 103842 104532 104618 104266 99987.1 99987.2 99987.5 99987.7 99999.7
          100000 100000 100000 100012 100529 100562 100627 100726 100860 101031 101240 101488
          101774 102098 102457 102846 103251 103588 103736 103750 99979.7 99979.8 99979.9 99980.1
          99999.5 100000 100000 100000 100010 100464 100493 100550 100637 100754 100902 101083
          101295 101538 101808 102100 102401 102688 102917 103051 103092 99971.2 99971.2 99971.4
          99971.5 99999.2 100000 100000 100000 100009 100400 100425 100475 100550 100650 100777
          100930 101109 101310 101531 101763 101994 102205 102373 102479 102514 99961.4 99961.5
          99961.6 99961.8 99998.9 100000 100000 100000 100007 100338 100359 100402 100466 100552
          100659 100788 100936 101101 101278 101461 101639 101798 101923 102003 102031 99950.2
          99950.3 99950.5 99950.7 99998.4 100000 100000 100000 100005 100278 100297 100334 100389
          100462 100552 100658 100780 100914 101056 101200 101338 101459 101554 101615 101636
          99937.4 99937.5 99937.8 99938 99997.9 100000 100000 100000 100004 100222 100238 100271
          100318 100380 100456 100545 100646 100755 100869 100983 101091 101185 101258 101304
          101320 99922.6 99922.9 99923.5 99923.8 99997.3 99999.9 100000 100000 100002 100168 100184
          100213 100256 100309 100375 100450 100534 100625 100718 100810 100896 100971 101028
          101065 101077 99905.4 99906.2 99908.4 99907.9 99995.1 99998.1 99998.6 99999.1 100000 100115
          100132 100162 100202 100250 100308 100374 100446 100523 100602 100680 100751 100813
          100860 100890 100900 99884.7 99886.2 99891.1 99904.7 99917.1 99939.1 99961.7 99987.7 100021
          100051 100087 100120 100158 100203 100256 100316 100382 100452 100522 100591 100654
          100708 100750 100776 100785 99859.6 99861.3 99867.5 99878.2 99892.9 99911.9 99934.3 99960.1
          99989.2 100020 100052 100087 100125 100169 100221 100279 100342 100409 100477 100543
          100604 100655 100695 100719 100728
        </DataArray>
        <DataArray type="Float32" Name="density_l" NumberOfComponents="1" format="ascii">
          997.068 997.068 997.068 997.068 997.068 997.068 997.068 997.068 997.068 997.068 997.068 997.068
          997.068 997.068 997.068 997.068 997.068 997.068 997.068 997.068 997.068 997.068 997.068 997.068
          997.068 997.068 997.068 997.068 997.069 997.069 997.069 997.069 997.069 997.069 997.069 997.069
          997.069 997.069 997.069 997.069 997.068 997.068 997.062 997.063 997.057 997.057 997.058 997.058
          997.099 997.097 997.068 997.068 997.068 997.068 997.068 997.068 997.068 997.068 997.068 997.068
          997.068 997.068 997.068 997.068 997.068 997.069 997.069 997.069 997.069 997.069 997.068 997.063
          997.057 997.058 997.097 997.068 997.068 997.068 997.068 997.068 997.068 997.068 997.068 997.068
          997.068 997.068 997.068 997.068 997.068 997.068 997.069 997.069 997.069 997.069 997.069 997.069
          997.064 997.057 997.057 997.096 997.068 997.068 997.068 997.068 997.068 997.068 997.068 997.068
          997.068 997.068 997.068 997.068 997.068 997.068 997.068 997.069 997.069 997.069 997.069 997.069
          997.069 997.065 997.057 997.056 997.089 997.068 997.068 997.068 997.068 997.068 997.068 997.068
          997.068 997.068 997.068 997.068 997.068 997.068 997.068 997.068 997.068 997.069 997.069 997.069
          997.069 997.069 997.068 997.061 997.058 997.054 997.068 997.068 997.068 997.068 997.068 997.068
          997.068 997.068 997.068 997.068 997.068 997.068 997.068 997.068 997.068 997.068 997.069 997.069
          997.069 997.069 997.069 997.069 997.067 997.061 997.066 997.068 997.068 997.068 997.068 997.068
          997.068 997.068 997.068 997.068 997.068 997.068 997.068 997.068 997.068 997.068 997.068 997.068
          997.069 997.069 997.069 997.069 997.069 997.069 997.068 997.069 997.068 997.068 997.068 997.068
          997.068 997.068 997.068 997.068 997.068 997.068 997.068 997.068 997.068 997.068 997.068 997.068
          997.068 997.068 997.069 997.069 997.069 997.069 997.069 997.069 997.069 997.068 997.068 997.068
          997.068 997.068 997.068 997.068 997.068 997.068 997.068 997.068 997.068 997.068 997.068 997.068
          997.068 997.068 997.068 997.068 997.069 997.069 997.069 997.069 997.069 997.069 997.068 997.068
          997.068 997.068 997.068 997.068 997.068 997.068 997.068 997.068 997.068 997.068 997.068 997.068
          997.068 997.068 997.068 997.068 997.068 997.068 997.069 997.069 997.069 997.069 997.069 997.068
          997.068 997.068 997.068 997.068 997.068 997.068 997.068 997.068 997.068 997.068 997.068 997.068
          997.068 997.068 997.068 997.068 997.068 997.068 997.068 997.068 997.068 997.068 997.069 997.069
          997.068 997.068 997.068 997.068 997.068 997.068 997.068 997.068 997.068 997.068 997.068 997.068
          997.068 997.068 997.068 997.068 997.068 997.068 997.068 997.068 997.068 997.068 997.068 997.068
          997.068 997.068 997.068 997.068 997.068 997.068 997.068 997.068 997.068 997.068 997.068 997.068
          997.068 997.068 997.068 997.068 997.068 997.068 997.068 997.068 997.068 997.068 997.068 997.068
          997.068 997.068 997.068 997.068 997.068 997.068 997.068 997.068 997.068 997.068 997.068 997.068
          997.068 997.068 997.068 997.068 997.068 997.068 997.068 997.068 997.068 997.068 997.068 997.068
          997.068 997.068 997.068 997.068 997.068 997.068 997.068 997.068 997.068 997.068 997.068 997.068
          997.068 997.068 997.068 997.068 997.068 997.068 997.068 997.068 997.068 997.068 997.068 997.068
          997.068 997.068 997.068 997.068 997.068 997.068 997.068 997.068 997.068 997.068 997.068 997.068
          997.068 997.068 997.068 997.068 997.068 997.068 997.068 997.068 997.068 997.068 997.068 997.068
          997.068 997.068 997.068 997.068 997.068
        </DataArray>
        <DataArray type="Float32" Name="density_g" NumberOfComponents="1" format="ascii">
          1.12612 1.12655 1.12606 1.12631 1.12675 1.12648 1.12686 1.12656 1.12606 1.12603 1.12602 1.126
          1.12602 1.126 1.12602 1.12601 1.12629 1.12626 1.13606 1.13567 1.13659 1.13622 1.13771 1.13734
          1.13945 1.13905 1.14182 1.14141 1.14489 1.14444 1.14869 1.14821 1.15327 1.15274 1.15869 1.1581
          1.16497 1.1643 1.17215 1.17136 1.18004 1.17906 1.18753 1.18622 1.19332 1.19161 1.21659 1.21513
          2.11611 2.0742 1.12604 1.12619 1.1263 1.12636 1.12602 1.126 1.126 1.12601 1.12624 1.13521
          1.13575 1.13684 1.13851 1.1408 1.14375 1.1474 1.15181 1.15699 1.16297 1.16972 1.17696 1.18327
          1.18612 1.20458 2.07053 1.12602 1.12611 1.12618 1.12621 1.12601 1.126 1.126 1.126 1.12622
          1.13466 1.13519 1.13623 1.13783 1.14001 1.14283 1.14631 1.15049 1.15541 1.16107 1.16742 1.17417
          1.17979 1.17888 1.18382 2.06109 1.12602 1.12605 1.12609 1.12611 1.12601 1.126 1.126 1.126
          1.1262 1.13406 1.13455 1.13553 1.13703 1.13908 1.14171 1.14496 1.14886 1.15344 1.1587 1.16462
          1.17102 1.17673 1.17598 1.16253 1.89415 1.12599 1.126 1.12601 1.12602 1.12601 1.126 1.126
          1.126 1.12618 1.13339 1.13384 1.13475 1.13614 1.13802 1.14044 1.14341 1.14698 1.15115 1.15594
          1.16136 1.16743 1.17417 1.18152 1.21345 1.12081 1.12593 1.12593 1.12594 1.12594 1.126 1.126
          1.126 1.126 1.12616 1.13269 1.1331 1.13392 1.13518 1.13688 1.13905 1.14173 1.14492 1.14863
          1.15287 1.15766 1.16303 1.16919 1.1764 1.1748 1.17304 1.12586 1.12586 1.12586 1.12586 1.126
          1.126 1.126 1.126 1.12614 1.13196 1.13233 1.13306 1.13418 1.13569 1.13761 1.13996 1.14275
          1.14598 1.14963 1.15366 1.15804 1.1626 1.16634 1.1677 1.16813 1.12577 1.12577 1.12578 1.12578
          1.126 1.126 1.126 1.126 1.12612 1.13123 1.13155 1.1322 1.13318 1.13449 1.13616 1.13819
          1.14058 1.14332 1.14636 1.14965 1.15304 1.15627 1.15884 1.16033 1.16081 1.12568 1.12568 1.12568
          1.12568 1.12599 1.126 1.126 1.126 1.1261 1.13051 1.13079 1.13135 1.13219 1.13333 1.13475
          1.13648 1.13849 1.14076 1.14324 1.14586 1.14846 1.15084 1.15272 1.15391 1.15431 1.12557 1.12557
          1.12557 1.12557 1.12599 1.126 1.126 1.126 1.12608 1.1298 1.13005 1.13053 1.13126 1.13222
          1.13343 1.13487 1.13654 1.1384 1.1404 1.14245 1.14445 1.14624 1.14766 1.14856 1.14887 1.12544
          1.12544 1.12544 1.12545 1.12599 1.126 1.126 1.126 1.12606 1.12913 1.12935 1.12976 1.13038
          1.1312 1.13221 1.13342 1.13479 1.1363 1.1379 1.13952 1.14107 1.14243 1.1435 1.14419 1.14442
          1.1253 1.1253 1.1253 1.12531 1.12598 1.126 1.126 1.126 1.12605 1.1285 1.12869 1.12905
          1.12959 1.13028 1.13114 1.13214 1.13327 1.13451 1.13579 1.13708 1.13829 1.13934 1.14017 1.14069
          1.14087 1.12513 1.12513 1.12514 1.12514 1.12597 1.126 1.126 1.126 1.12603 1.12789 1.12807
          1.1284 1.12888 1.12949 1.13022 1.13107 1.13202 1.13304 1.13409 1.13513 1.13609 1.13693 1.13758
          1.13799 1.13813 1.12494 1.12495 1.12497 1.12497 1.12595 1.12598 1.12599 1.12599 1.12601 1.1273
          1.12749 1.12783 1.12828 1.12882 1.12947 1.13021 1.13103 1.1319 1.13279 1.13366 1.13446 1.13515
          1.13569 1.13602 1.13614 1.1247 1.12472 1.12478 1.12493 1.12507 1.12532 1.12557 1.12586 1.12624
          1.12658 1.12698 1.12735 1.12778 1.12829 1.12889 1.12957 1.13031 1.13109 1.13188 1.13266 1.13337
          1.13398 1.13444 1.13474 1.13484 1.12442 1.12444 1.12451 1.12463 1.1248 1.12501 1.12526 1.12555
          1.12588 1.12623 1.12659 1.12698 1.12741 1.12791 1.12849 1.12914 1.12986 1.13061 1.13138 1.13212
          1.1328 1.13338 1.13382 1.1341 1.1342
        </DataArray>
        <DataArray type="Float32" Name="saturation_l" NumberOfComponents="1" format="ascii">
          0 0 0 0 0 0 0 0 0 0 0 0
          0 0 0 0 0 0 0 0 0 0 0 0
          0 0 0 0 0 0 0 0 0 0 0 0
          0 0 0 0 0 0 0 0 0.00202697 0.0017913 0.423291 0.364906
          0.998657 0.999302 0 0 0 0 0 0 0 0 0 0
          0 0 0 0 0 0 0 0 0 0 0 0
          0.00135914 0.364684 0.999593 0 0 0 0 0 0 0 0 0
          0 0 0 0 0 0 0 0 0 0 0 0
          0 0.000292699 0.346283 1 0 0 0 0 0 0 0 0
          0 0 0 0 0 0 0 0 0 0 0 0
          0 0 6.89144e-06 0.215293 0.997022 0 0 0 0 0 0 0
          0 0 0 0 0 0 0 0 0 0 0 0
          0 0 0 0 0.000571825 0.0864216 0 0 0 0 0 0
          0 0 0 0 0 0 0 0 0 0 0 0
          0 0 0 0 0 0 0 0 0 0 0 0
          0 0 0 0 0 0 0 0 0 0 0 0
          0 0 0 0 0 0 0 0 0 0 0 0
          0 0 0 0 0 0 0 0 0 0 0 0
          0 0 0 0 0 0 0 0 0 0 0 0
          0 0 0 0 0 0 0 0 0 0 0 0
          0 0 0 0 0 0 0 0 0 0 0 0
          0 0 0 0 0 0 0 0 0 0 0 0
          0 0 0 0 0 0 0 0 0 0 0 0
          0 0 0 0 0 0 0 0 0 0 0 0
          0 0 0 0 0 0 0 0 0 0 0 0
          0 0 0 0 0 0 0 0 0 0 0 0
          0 0 0 0 0 0 0 0 0 0 0 0
          0 0 0 0 0 0 0 0 0 0 0 0
          0 0 0 0 0 0 0 0 0 0 0 0
          0 0 0 0 0 0 0 0 0 0 0 0
          0 0 0 0 0 0 0 0 0 0 0 0
          0 0 0 0 0 0 0 0 0 0 0 0
          0 0 0 0 0 0 0 0 0 0 0 0
          0 0 0 0 0 0 0 0 0 0 0 0
          0 0 0 0 0 0 0 0 0 0 0 0
          0 0 0 0 0
        </DataArray>
        <DataArray type="Float32" Name="saturation_g" NumberOfComponents="1" format="ascii">
          1 1 1 1 1 1 1 1 1 1 1 1
          1 1 1 1 1 1 1 1 1 1 1 1
          1 1 1 1 1 1 1 1 1 1 1 1
          1 1 1 1 1 1 1 1 0.997973 0.998209 0.576709 0.635094
          0.00134324 0.000697883 1 1 1 1 1 1 1 1 1 1
          1 1 1 1 1 1 1 1 1 1 1 1
          0.998641 0.635316 0.000406821 1 1 1 1 1 1 1 1 1
          1 1 1 1 1 1 1 1 1 1 1 1
          1 0.999707 0.653717 0 1 1 1 1 1 1 1 1
          1 1 1 1 1 1 1 1 1 1 1 1
          1 1 0.999993 0.784707 0.0029779 1 1 1 1 1 1 1
          1 1 1 1 1 1 1 1 1 1 1 1
          1 1 1 1 0.999428 0.913578 1 1 1 1 1 1
          1 1 1 1 1 1 1 1 1 1 1 1
          1 1 1 1 1 1 1 1 1 1 1 1
          1 1 1 1 1 1 1 1 1 1 1 1
          1 1 1 1 1 1 1 1 1 1 1 1
          1 1 1 1 1 1 1 1 1 1 1 1
          1 1 1 1 1 1 1 1 1 1 1 1
          1 1 1 1 1 1 1 1 1 1 1 1
          1 1 1 1 1 1 1 1 1 1 1 1
          1 1 1 1 1 1 1 1 1 1 1 1
          1 1 1 1 1 1 1 1 1 1 1 1
          1 1 1 1 1 1 1 1 1 1 1 1
          1 1 1 1 1 1 1 1 1 1 1 1
          1 1 1 1 1 1 1 1 1 1 1 1
          1 1 1 1 1 1 1 1 1 1 1 1
          1 1 1 1 1 1 1 1 1 1 1 1
          1 1 1 1 1 1 1 1 1 1 1 1
          1 1 1 1 1 1 1 1 1 1 1 1
          1 1 1 1 1 1 1 1 1 1 1 1
          1 1 1 1 1 1 1 1 1 1 1 1
          1 1 1 1 1 1 1 1 1 1 1 1
          1 1 1 1 1 1 1 1 1 1 1 1
          1 1 1 1 1 1 1 1 1 1 1 1
          1 1 1 1 1
        </DataArray>
        <DataArray type="Float32" Name="relativePerm_l" NumberOfComponents="1" format="ascii">
          0 0 0 0 0 0 0 0 0 0 0 0
          0 0 0 0 0 0 0 0 0 0 0 0
          0 0 0 0 0 0 0 0 0 0 0 0
          0 0 0 0 0 0 0 0 3.67059e-05 2.865e-05 0.41903 0.3574
          0.999984 0.999996 0 0 0 0 0 0 0 0 0 0
          0 0 0 0 0 0 0 0 0 0 0 0
          1.6476e-05 0.357167 0.999999 0 0 0 0 0 0 0 0 0
          0 0 0 0 0 0 0 0 0 0 0 0
          0 7.62091e-07 0.337743 1 0 0 0 0 0 0 0 0
          0 0 0 0 0 0 0 0 0 0 0 0
          0 0 4.22158e-10 0.199476 0.999921 0 0 0 0 0 0 0
          0 0 0 0 0 0 0 0 0 0 0 0
          0 0 0 0 2.91068e-06 0.063445 0 0 0 0 0 0
          0 0 0 0 0 0 0 0 0 0 0 0
          0 0 0 0 0 0 0 0 0 0 0 0
          0 0 0 0 0 0 0 0 0 0 0 0
          0 0 0 0 0 0 0 0 0 0 0 0
          0 0 0 0 0 0 0 0 0 0 0 0
          0 0 0 0 0 0 0 0 0 0 0 0
          0 0 0 0 0 0 0 0 0 0 0 0
          0 0 0 0 0 0 0 0 0 0 0 0
          0 0 0 0 0 0 0 0 0 0 0 0
          0 0 0 0 0 0 0 0 0 0 0 0
          0 0 0 0 0 0 0 0 0 0 0 0
          0 0 0 0 0 0 0 0 0 0 0 0
          0 0 0 0 0 0 0 0 0 0 0 0
          0 0 0 0 0 0 0 0 0 0 0 0
          0 0 0 0 0 0 0 0 0 0 0 0
          0 0 0 0 0 0 0 0 0 0 0 0
          0 0 0 0 0 0 0 0 0 0 0 0
          0 0 0 0 0 0 0 0 0 0 0 0
          0 0 0 0 0 0 0 0 0 0 0 0
          0 0 0 0 0 0 0 0 0 0 0 0
          0 0 0 0 0 0 0 0 0 0 0 0
          0 0 0 0 0 0 0 0 0 0 0 0
          0 0 0 0 0
        </DataArray>
        <DataArray type="Float32" Name="relativePerm_g" NumberOfComponents="1" format="ascii">
          1 1 1 1 1 1 1 1 1 1 1 1
          1 1 1 1 1 1 1 1 1 1 1 1
          1 1 1 1 1 1 1 1 1 1 1 1
          1 1 1 1 1 1 1 1 0.999963 0.999971 0.58097 0.6426
          1.60919e-05 4.33681e-06 1 1 1 1 1 1 1 1 1 1
          1 1 1 1 1 1 1 1 1 1 1 1
          0.999984 0.642833 1.47264e-06 1 1 1 1 1 1 1 1 1
          1 1 1 1 1 1 1 1 1 1 1 1
          1 0.999999 0.662257 0 1 1 1 1 1 1 1 1
          1 1 1 1 1 1 1 1 1 1 1 1
          1 1 1 0.800524 7.94127e-05 1 1 1 1 1 1 1
          1 1 1 1 1 1 1 1 1 1 1 1
          1 1 1 1 0.999997 0.936555 1 1 1 1 1 1
          1 1 1 1 1 1 1 1 1 1 1 1
          1 1 1 1 1 1 1 1 1 1 1 1
          1 1 1 1 1 1 1 1 1 1 1 1
          1 1 1 1 1 1 1 1 1 1 1 1
          1 1 1 1 1 1 1 1 1 1 1 1
          1 1 1 1 1 1 1 1 1 1 1 1
          1 1 1 1 1 1 1 1 1 1 1 1
          1 1 1 1 1 1 1 1 1 1 1 1
          1 1 1 1 1 1 1 1 1 1 1 1
          1 1 1 1 1 1 1 1 1 1 1 1
          1 1 1 1 1 1 1 1 1 1 1 1
          1 1 1 1 1 1 1 1 1 1 1 1
          1 1 1 1 1 1 1 1 1 1 1 1
          1 1 1 1 1 1 1 1 1 1 1 1
          1 1 1 1 1 1 1 1 1 1 1 1
          1 1 1 1 1 1 1 1 1 1 1 1
          1 1 1 1 1 1 1 1 1 1 1 1
          1 1 1 1 1 1 1 1 1 1 1 1
          1 1 1 1 1 1 1 1 1 1 1 1
          1 1 1 1 1 1 1 1 1 1 1 1
          1 1 1 1 1 1 1 1 1 1 1 1
          1 1 1 1 1 1 1 1 1 1 1 1
          1 1 1 1 1
        </DataArray>
        <DataArray type="Float32" Name="porosity" NumberOfComponents="1" format="ascii">
          0.3 0.3 0.3 0.3 0.3 0.3 0.3 0.3 0.3 0.3 0.3 0.3
          0.3 0.3 0.3 0.3 0.3 0.3 0.3 0.3 0.3 0.3 0.3 0.3
          0.3 0.3 0.3 0.3 0.3 0.3 0.3 0.3 0.3 0.3 0.3 0.3
          0.3 0.3 0.3 0.3 0.3 0.3 0.3 0.3 0.3 0.3 0.3 0.3
          0.3 0.3 0.3 0.3 0.3 0.3 0.3 0.3 0.3 0.3 0.3 0.3
          0.3 0.3 0.3 0.3 0.3 0.3 0.3 0.3 0.3 0.3 0.3 0.3
          0.3 0.3 0.3 0.3 0.3 0.3 0.3 0.3 0.3 0.3 0.3 0.3
          0.3 0.3 0.3 0.3 0.3 0.3 0.3 0.3 0.3 0.3 0.3 0.3
          0.3 0.3 0.3 0.3 0.3 0.3 0.3 0.3 0.3 0.3 0.3 0.3
          0.3 0.3 0.3 0.3 0.3 0.3 0.3 0.3 0.3 0.3 0.3 0.3
          0.3 0.3 0.3 0.3 0.3 0.3 0.3 0.3 0.3 0.3 0.3 0.3
          0.3 0.3 0.3 0.3 0.3 0.3 0.3 0.3 0.3 0.3 0.3 0.3
          0.3 0.3 0.3 0.3 0.3 0.3 0.3 0.3 0.3 0.3 0.3 0.3
          0.3 0.3 0.3 0.3 0.3 0.3 0.3 0.3 0.3 0.3 0.3 0.3
          0.3 0.3 0.3 0.3 0.3 0.3 0.3 0.3 0.3 0.3 0.3 0.3
          0.3 0.3 0.3 0.3 0.3 0.3 0.3 0.3 0.3 0.3 0.3 0.3
          0.3 0.3 0.3 0.3 0.3 0.3 0.3 0.3 0.3 0.3 0.3 0.3
          0.3 0.3 0.3 0.3 0.3 0.3 0.3 0.3 0.3 0.3 0.3 0.3
          0.3 0.3 0.3 0.3 0.3 0.3 0.3 0.3 0.3 0.3 0.3 0.3
          0.3 0.3 0.3 0.3 0.3 0.3 0.3 0.3 0.3 0.3 0.3 0.3
          0.3 0.3 0.3 0.3 0.3 0.3 0.3 0.3 0.3 0.3 0.3 0.3
          0.3 0.3 0.3 0.3 0.3 0.3 0.3 0.3 0.3 0.3 0.3 0.3
          0.3 0.3 0.3 0.3 0.3 0.3 0.3 0.3 0.3 0.3 0.3 0.3
          0.3 0.3 0.3 0.3 0.3 0.3 0.3 0.3 0.3 0.3 0.3 0.3
          0.3 0.3 0.3 0.3 0.3 0.3 0.3 0.3 0.3 0.3 0.3 0.3
          0.3 0.3 0.3 0.3 0.3 0.3 0.3 0.3 0.3 0.3 0.3 0.3
          0.3 0.3 0.3 0.3 0.3 0.3 0.3 0.3 0.3 0.3 0.3 0.3
          0.3 0.3 0.3 0.3 0.3 0.3 0.3 0.3 0.3 0.3 0.3 0.3
          0.3 0.3 0.3 0.3 0.3 0.3 0.3 0.3 0.3 0.3 0.3 0.3
          0.3 0.3 0.3 0.3 0.3 0.3 0.3 0.3 0.3 0.3 0.3 0.3
          0.3 0.3 0.3 0.3 0.3 0.3 0.3 0.3 0.3 0.3 0.3 0.3
          0.3 0.3 0.3 0.3 0.3 0.3 0.3 0.3 0.3 0.3 0.3 0.3
          0.3 0.3 0.3 0.3 0.3 0.3 0.3 0.3 0.3 0.3 0.3 0.3
          0.3 0.3 0.3 0.3 0.3 0.3 0.3 0.3 0.3 0.3 0.3 0.3
          0.3 0.3 0.3 0.3 0.3 0.3 0.3 0.3 0.3 0.3 0.3 0.3
          0.3 0.3 0.3 0.3 0.3
        </DataArray>
        <DataArray type="Float32" Name="moleFrac_l^H2O" NumberOfComponents="1" format="ascii">
          0.315516 0.315635 0.315499 0.31557 0.315692 0.315618 0.315723 0.31564 0.315499 0.315491 0.315488 0.315483
          0.315488 0.315483 0.315489 0.315483 0.315563 0.315554 0.318299 0.318191 0.318449 0.318345 0.318764 0.318658
          0.319249 0.319139 0.319915 0.319798 0.320773 0.320649 0.321838 0.321703 0.323124 0.322976 0.324663 0.324495
          0.32676 0.32654 0.332683 0.332133 0.367305 0.364862 0.544 0.536918 0.999988 0.999988 0.999988 0.999988
          0.999979 0.999979 0.315492 0.315535 0.315566 0.315582 0.315488 0.315483 0.315483 0.315483 0.315549 0.318061
          0.318213 0.318519 0.318987 0.319628 0.320454 0.321478 0.322712 0.324179 0.326087 0.330827 0.358095 0.511626
          0.999988 0.999988 0.999979 0.315488 0.315513 0.315532 0.315541 0.315486 0.315483 0.315483 0.315483 0.315544
          0.31791 0.318055 0.318348 0.318796 0.319408 0.320196 0.321172 0.322345 0.32373 0.325455 0.329096 0.349045
          0.472364 0.999988 0.999988 0.99998 0.315486 0.315497 0.315506 0.315512 0.315484 0.315483 0.315483 0.315483
          0.315538 0.317739 0.317876 0.318152 0.318572 0.319146 0.319883 0.320794 0.321888 0.323173 0.324708 0.32735
          0.340912 0.443721 0.999988 0.999988 0.999981 0.315479 0.315481 0.315485 0.315488 0.315483 0.315483 0.315483
          0.315483 0.315532 0.317553 0.31768 0.317934 0.318321 0.318849 0.319526 0.320361 0.32136 0.322529 0.323882
          0.325604 0.33025 0.363858 0.584804 0.999988 0.999989 0.315462 0.315463 0.315465 0.315466 0.315483 0.315483
          0.315483 0.315483 0.315527 0.317355 0.317471 0.317702 0.318052 0.318529 0.319139 0.319888 0.320781 0.321822
          0.323012 0.324378 0.32631 0.333393 0.380428 0.581971 0.407499 0.315442 0.315442 0.315443 0.315444 0.315482
          0.315483 0.315483 0.315483 0.315521 0.317152 0.317255 0.317461 0.317773 0.318196 0.318735 0.319394 0.320176
          0.321079 0.322101 0.323235 0.324499 0.326294 0.332299 0.356511 0.335095 0.315419 0.315419 0.315419 0.31542
          0.315481 0.315483 0.315483 0.315483 0.315515 0.316947 0.317038 0.317219 0.317492 0.317861 0.318329 0.318898
          0.319568 0.320334 0.321186 0.322107 0.323061 0.323999 0.325071 0.327353 0.325947 0.315392 0.315392 0.315392
          0.315393 0.31548 0.315483 0.315483 0.315483 0.31551 0.316744 0.316824 0.316981 0.317217 0.317535 0.317935
          0.318418 0.318981 0.319617 0.320313 0.321045 0.321774 0.322442 0.322989 0.323427 0.323461 0.315361 0.315361
          0.315361 0.315362 0.315479 0.315483 0.315483 0.315483 0.315505 0.316548 0.316617 0.316752 0.316954 0.317225
          0.317563 0.317967 0.318434 0.318955 0.319515 0.320092 0.320652 0.321154 0.32155 0.321808 0.321891 0.315326
          0.315326 0.315326 0.315327 0.315478 0.315483 0.315483 0.315483 0.3155 0.31636 0.31642 0.316536 0.316709
          0.316939 0.317223 0.31756 0.317944 0.318367 0.318816 0.31927 0.319703 0.320085 0.320385 0.320577 0.320643
          0.315285 0.315285 0.315286 0.315287 0.315476 0.315483 0.315483 0.315483 0.315495 0.316182 0.316235 0.316337
          0.316487 0.316682 0.316922 0.317203 0.31752 0.317865 0.318225 0.318585 0.318924 0.31922 0.319451 0.319597
          0.319648 0.315238 0.315239 0.315241 0.315242 0.315474 0.315482 0.315483 0.315483 0.31549 0.316012 0.316062
          0.316156 0.316289 0.316459 0.316664 0.316902 0.317168 0.317453 0.317748 0.318039 0.31831 0.318545 0.318726
          0.318841 0.318881 0.315184 0.315187 0.315194 0.315192 0.315467 0.315477 0.315478 0.31548 0.315483 0.315845
          0.3159 0.315995 0.316119 0.316272 0.316454 0.316661 0.31689 0.317134 0.317383 0.317627 0.317853 0.318047
          0.318196 0.31829 0.318322 0.315119 0.315123 0.315139 0.315182 0.315221 0.315291 0.315362 0.315444 0.315549
          0.315645 0.315756 0.31586 0.315981 0.316124 0.316292 0.316481 0.316688 0.316908 0.317131 0.317347 0.317547
          0.317717 0.317848 0.31793 0.317958 0.31504 0.315045 0.315065 0.315098 0.315145 0.315205 0.315275 0.315357
          0.315448 0.315546 0.315648 0.315756 0.315876 0.316017 0.316179 0.316363 0.316563 0.316774 0.316988 0.317196
          0.317387 0.317549 0.317674 0.317752 0.317779
        </DataArray>
        <DataArray type="Float32" Name="moleFrac_l^N2" NumberOfComponents="1" format="ascii">
          1.14733e-05 1.14777e-05 1.14727e-05 1.14753e-05 1.14797e-05 1.1477e-05 1.14808e-05 1.14778e-05 1.14727e-05 1.14724e-05 1.14723e-05 1.14721e-05
          1.14723e-05 1.14721e-05 1.14723e-05 1.14721e-05 1.1475e-05 1.14747e-05 1.15745e-05 1.15706e-05 1.158e-05 1.15762e-05 1.15914e-05 1.15876e-05
          1.16091e-05 1.16051e-05 1.16333e-05 1.1629e-05 1.16645e-05 1.166e-05 1.17032e-05 1.16983e-05 1.175e-05 1.17446e-05 1.18051e-05 1.17991e-05
          1.1869e-05 1.18622e-05 1.19412e-05 1.19333e-05 1.2014e-05 1.20045e-05 1.20489e-05 1.20371e-05 1.20002e-05 1.19827e-05 1.22389e-05 1.22239e-05
          2.1463e-05 2.10331e-05 1.14724e-05 1.1474e-05 1.14752e-05 1.14757e-05 1.14723e-05 1.14721e-05 1.14721e-05 1.14721e-05 1.14745e-05 1.15659e-05
          1.15714e-05 1.15825e-05 1.15995e-05 1.16229e-05 1.16529e-05 1.16901e-05 1.1735e-05 1.17878e-05 1.18487e-05 1.19168e-05 1.19845e-05 1.20129e-05
          1.19264e-05 1.21157e-05 2.09956e-05 1.14723e-05 1.14732e-05 1.14739e-05 1.14742e-05 1.14722e-05 1.14721e-05 1.14721e-05 1.14721e-05 1.14743e-05
          1.15604e-05 1.15657e-05 1.15763e-05 1.15926e-05 1.16149e-05 1.16435e-05 1.1679e-05 1.17216e-05 1.17717e-05 1.18293e-05 1.18936e-05 1.19581e-05
          1.19865e-05 1.18522e-05 1.19028e-05 2.02393e-05 1.14722e-05 1.14726e-05 1.1473e-05 1.14732e-05 1.14722e-05 1.14721e-05 1.14721e-05 1.14721e-05
          1.14741e-05 1.15542e-05 1.15591e-05 1.15692e-05 1.15844e-05 1.16053e-05 1.16321e-05 1.16653e-05 1.1705e-05 1.17517e-05 1.18052e-05 1.18653e-05
          1.19277e-05 1.19619e-05 1.18224e-05 1.16845e-05 1.91869e-05 1.1472e-05 1.1472e-05 1.14722e-05 1.14723e-05 1.14721e-05 1.14721e-05 1.14721e-05
          1.14721e-05 1.14739e-05 1.15474e-05 1.1552e-05 1.15613e-05 1.15753e-05 1.15945e-05 1.16192e-05 1.16495e-05 1.16858e-05 1.17283e-05 1.17771e-05
          1.18322e-05 1.18935e-05 1.19546e-05 1.19776e-05 1.22067e-05 1.12567e-05 1.14714e-05 1.14714e-05 1.14715e-05 1.14715e-05 1.14721e-05 1.14721e-05
          1.14721e-05 1.14721e-05 1.14737e-05 1.15402e-05 1.15444e-05 1.15528e-05 1.15656e-05 1.15829e-05 1.16051e-05 1.16323e-05 1.16648e-05 1.17026e-05
          1.17459e-05 1.17946e-05 1.18492e-05 1.19107e-05 1.19735e-05 1.19094e-05 1.19327e-05 1.14706e-05 1.14706e-05 1.14707e-05 1.14707e-05 1.14721e-05
          1.14721e-05 1.14721e-05 1.14721e-05 1.14735e-05 1.15328e-05 1.15366e-05 1.15441e-05 1.15554e-05 1.15708e-05 1.15904e-05 1.16144e-05 1.16428e-05
          1.16756e-05 1.17128e-05 1.17539e-05 1.17985e-05 1.18448e-05 1.18817e-05 1.189e-05 1.18994e-05 1.14698e-05 1.14698e-05 1.14698e-05 1.14698e-05
          1.1472e-05 1.14721e-05 1.14721e-05 1.14721e-05 1.14733e-05 1.15253e-05 1.15287e-05 1.15352e-05 1.15452e-05 1.15586e-05 1.15756e-05 1.15963e-05