<?xml version="1.0"?>
<VTKFile type="UnstructuredGrid" version="0.1" byte_order="LittleEndian">
  <UnstructuredGrid>
    <Piece NumberOfCells="384" NumberOfPoints="425">
      <PointData Scalars="pressure_l">
        <DataArray type="Float32" Name="pressure_l" NumberOfComponents="1" format="ascii">
          100010 100049 100007 100028 100067 100043 100077 100050 100005 100003 100002 100000
          100002 100000 100002 100000 100016 100014 100496 100465 100520 100490 100572 100542
          100656 100624 100774 100741 100933 100898 101140 101102 101404 101363 101735 101689
          102143 102091 102636 102578 103215 103154 103865 103813 104487 104547 103816 106110
          161395 141141 100004 100017 100027 100032 100002 100000 100000 100000 100012 100431
          100456 100507 100587 100700 100851 101047 101297 101609 101995 102463 103023 103680
          104430 105327 137680 100002 100010 100016 100019 100001 100000 100000 100000 100011
          100396 100420 100468 100544 100650 100792 100975 101208 101499 101856 102290 102814
          103440 104155 104093 132730 100002 100005 100008 100010 100001 100000 100000 100000
          100009 100360 100382 100426 100496 100594 100724 100891 101102 101364 101683 102069
          102533 103094 103821 105634 103624 99999.4 100000 100001 100002 100000 100000 100000
          100000 100008 100322 100342 100382 100445 100533 100649 100798 100984 101212 101487
          101814 102199 102651 103199 103561 103540 99993.9 99994.1 99994.6 99995 100000 100000
          100000 100000 100007 100283 100301 100337 100392 100469 100571 100700 100859 101052
          101280 101546 101846 102173 102484 102695 102763 99987.3 99987.4 99987.6 99987.8 99999.7
          100000 100000 100000 100006 100244 100259 100291 100339 100405 100492 100601 100734
          100893 101077 101285 101509 101736 101935 102072 102120 99979.7 99979.8 99979.9 99980.1
          99999.4 100000 100000 100000 100005 100205 100219 100246 100287 100343 100416 100506
          100615 100742 100887 101046 101211 101369 101504 101594 101626 99971 99971 99971.1
          99971.3 99999.1 100000 100000 100000 100004 100168 100179 100202 100236 100283 100343
          100417 100504 100605 100717 100836 100957 101069 101162 101223 101245 99961 99961
          99961.1 99961.3 99998.8 100000 100000 100000 100003 100131 100141 100159 100188 100227
          100275 100335 100404 100483 100569 100659 100747 100827 100892 100935 100950 99949.4
          99949.5 99949.6 99949.8 99998.4 100000 100000 100000 100002 100095 100103 100119 100143
          100175 100214 100262 100317 100378 100444 100511 100576 100634 100681 100711 100721
          99936.1 99936.2 99936.3 99936.5 99997.8 100000 100000 100000 100001 100061 100068 100081
          100101 100127 100159 100198 100241 100289 100340 100391 100440 100482 100516 100538
          100545 99920.8 99921 99921.2 99921.1 99997.1 99999.9 100000 100000 99999.4 100027 100033
          100045 100062 100084 100111 100142 100177 100216 100256 100295 100332 100365 100390
          100406 100412 99903 99903.5 99904.9 99903.1 99994.6 99997.6 99997.9 99998 99997 99991.4
          99999.9 100011 100027 100046 100069 100095 100125 100156 100189 100221 100251 100277
          100297 100309 100314 99881.8 99882.9 99886.4 99897.3 99901.7 99914.6 99925.3 99935.2 99945.6
          99959.3 99968.6 99980 99994.2 100012 100032 100056 100082 100110 100139 100166 100192
          100214 100231 100242 100246 99856.5 99857.8 99862.4 99869.4 99877.5 99887.3 99897.7 99907.7
          99918.2 99929.1 99939.7 99951.1 99965 99981.9 100002 100025 100050 100076 100103 100130
          100154 100175 100191 100201 100205
        </DataArray>
        <DataArray type="Float32" Name="pressure_g" NumberOfComponents="1" format="ascii">
          100010 100049 100007 100028 100067 100043 100077 100050 100005 100003 100002 100000
          100002 100000 100002 100000 100016 100014 100496 100465 100520 100490 100572 100542
          100656 100624 100774 100741 100933 100898 101140 101102 101404 101363 101735 101689
          102143 102091 102636 102578 103215 103154 103865 103813 104487 104547 103816 106110
          161395 141141 100004 100017 100027 100032 100002 100000 100000 100000 100012 100431
          100456 100507 100587 100700 100851 101047 101297 101609 101995 102463 103023 103680
          104430 105327 137680 100002 100010 100016 100019 100001 100000 100000 100000 100011
          100396 100420 100468 100544 100650 100792 100975 101208 101499 101856 102290 102814
          103440 104155 104093 132730 100002 100005 100008 100010 100001 100000 100000 100000
          100009 100360 100382 100426 100496 100594 100724 100891 101102 101364 101683 102069
          102533 103094 103821 105634 103624 99999.4 100000 100001 100002 100000 100000 100000
          100000 100008 100322 100342 100382 100445 100533 100649 100798 100984 101212 101487
          101814 102199 102651 103199 103561 103540 99993.9 99994.1 99994.6 99995 100000 100000
          100000 100000 100007 100283 100301 100337 100392 100469 100571 100700 100859 101052
          101280 101546 101846 102173 102484 102695 102763 99987.3 99987.4 99987.6 99987.8 99999.7
          100000 100000 100000 100006 100244 100259 100291 100339 100405 100492 100601 100734
          100893 101077 101285 101509 101736 101935 102072 102120 99979.7 99979.8 99979.9 99980.1
          99999.4 100000 100000 100000 100005 100205 100219 100246 100287 100343 100416 100506
          100615 100742 100887 101046 101211 101369 101504 101594 101626 99971 99971 99971.1
          99971.3 99999.1 100000 100000 100000 100004 100168 100179 100202 100236 100283 100343
          100417 100504 100605 100717 100836 100957 101069 101162 101223 101245 99961 99961
          99961.1 99961.3 99998.8 100000 100000 100000 100003 100131 100141 100159 100188 100227
          100275 100335 100404 100483 100569 100659 100747 100827 100892 100935 100950 99949.4
          99949.5 99949.6 99949.8 99998.4 100000 100000 100000 100002 100095 100103 100119 100143
          100175 100214 100262 100317 100378 100444 100511 100576 100634 100681 100711 100721
          99936.1 99936.2 99936.3 99936.5 99997.8 100000 100000 100000 100001 100061 100068 100081
          100101 100127 100159 100198 100241 100289 100340 100391 100440 100482 100516 100538
          100545 99920.8 99921 99921.2 99921.1 99997.1 99999.9 100000 100000 99999.4 100027 100033
          100045 100062 100084 100111 100142 100177 100216 100256 100295 100332 100365 100390
          100406 100412 99903 99903.5 99904.9 99903.1 99994.6 99997.6 99997.9 99998 99997 99991.4
          99999.9 100011 100027 100046 100069 100095 100125 100156 100189 100221 100251 100277
          100297 100309 100314 99881.8 99882.9 99886.4 99897.3 99901.7 99914.6 99925.3 99935.2 99945.6
          99959.3 99968.6 99980 99994.2 100012 100032 100056 100082 100110 100139 100166 100192
          100214 100231 100242 100246 99856.5 99857.8 99862.4 99869.4 99877.5 99887.3 99897.7 99907.7
          99918.2 99929.1 99939.7 99951.1 99965 99981.9 100002 100025 100050 100076 100103 100130
          100154 100175 100191 100201 100205
        </DataArray>
        <DataArray type="Float32" Name="density_l" NumberOfComponents="1" format="ascii">
          997.068 997.068 997.068 997.068 997.068 997.068 997.068 997.068 997.068 997.068 997.068 997.068
          997.068 997.068 997.068 997.068 997.068 997.068 997.068 997.068 997.068 997.068 997.068 997.068
          997.068 997.068 997.068 997.068 997.068 997.068 997.068 997.068 997.068 997.068 997.069 997.069
          997.069 997.069 997.069 997.069 997.069 997.069 997.067 997.066 997.06 997.056 997.056 997.057
          997.085 997.075 997.068 997.068 997.068 997.068 997.068 997.068 997.068 997.068 997.068 997.068
          997.068 997.068 997.068 997.068 997.068 997.068 997.068 997.069 997.069 997.069 997.069 997.066
          997.056 997.057 997.073 997.068 997.068 997.068 997.068 997.068 997.068 997.068 997.068 997.068
          997.068 997.068 997.068 997.068 997.068 997.068 997.068 997.068 997.068 997.069 997.069 997.069
          997.066 997.057 997.056 997.071 997.068 997.068 997.068 997.068 997.068 997.068 997.068 997.068
          997.068 997.068 997.068 997.068 997.068 997.068 997.068 997.068 997.068 997.068 997.069 997.069
          997.069 997.068 997.063 997.057 997.056 997.068 997.068 997.068 997.068 997.068 997.068 997.068
          997.068 997.068 997.068 997.068 997.068 997.068 997.068 997.068 997.068 997.068 997.068 997.068
          997.069 997.069 997.069 997.068 997.062 997.063 997.068 997.068 997.068 997.068 997.068 997.068
          997.068 997.068 997.068 997.068 997.068 997.068 997.068 997.068 997.068 997.068 997.068 997.068
          997.068 997.068 997.069 997.069 997.069 997.068 997.068 997.068 997.068 997.068 997.068 997.068
          997.068 997.068 997.068 997.068 997.068 997.068 997.068 997.068 997.068 997.068 997.068 997.068
          997.068 997.068 997.068 997.068 997.069 997.069 997.069 997.069 997.068 997.068 997.068 997.068
          997.068 997.068 997.068 997.068 997.068 997.068 997.068 997.068 997.068 997.068 997.068 997.068
          997.068 997.068 997.068 997.068 997.068 997.068 997.068 997.068 997.069 997.068 997.068 997.068
          997.068 997.068 997.068 997.068 997.068 997.068 997.068 997.068 997.068 997.068 997.068 997.068
          997.068 997.068 997.068 997.068 997.068 997.068 997.068 997.068 997.068 997.068 997.068 997.068
          997.068 997.068 997.068 997.068 997.068 997.068 997.068 997.068 997.068 997.068 997.068 997.068
          997.068 997.068 997.068 997.068 997.068 997.068 997.068 997.068 997.068 997.068 997.068 997.068
          997.068 997.068 997.068 997.068 997.068 997.068 997.068 997.068 997.068 997.068 997.068 997.068
          997.068 997.068 997.068 997.068 997.068 997.068 997.068 997.068 997.068 997.068 997.068 997.068
          997.068 997.068 997.068 997.068 997.068 997.068 997.068 997.068 997.068 997.068 997.068 997.068
          997.068 997.068 997.068 997.068 997.068 997.068 997.068 997.068 997.068 997.068 997.068 997.068
          997.068 997.068 997.068 997.068 997.068 997.068 997.068 997.068 997.068 997.068 997.068 997.068
          997.068 997.068 997.068 997.068 997.068 997.068 997.068 997.068 997.068 997.068 997.068 997.068
          997.068 997.068 997.068 997.068 997.068 997.068 997.068 997.068 997.068 997.068 997.068 997.068
          997.068 997.068 997.068 997.068 997.068 997.068 997.068 997.068 997.068 997.068 997.068 997.068
          997.068 997.068 997.068 997.068 997.068 997.068 997.068 997.068 997.068 997.068 997.068 997.068
          997.068 997.068 997.068 997.068 997.068 997.068 997.068 997.068 997.068 997.068 997.068 997.068
          997.068 997.068 997.068 997.068 997.068 997.068 997.068 997.068 997.068 997.068 997.068 997.068
          997.068 997.068 997.068 997.068 997.068 997.068 997.068 997.068 997.068 997.068 997.068 997.068
          997.068 997.068 997.068 997.068 997.068
        </DataArray>
        <DataArray type="Float32" Name="density_g" NumberOfComponents="1" format="ascii">
          1.12612 1.12656 1.12608 1.12632 1.12676 1.12649 1.12687 1.12657 1.12606 1.12603 1.12602 1.126
          1.12602 1.126 1.12602 1.126 1.12618 1.12616 1.13159 1.13123 1.13186 1.13152 1.13245 1.13211
          1.13338 1.13303 1.13471 1.13435 1.1365 1.13612 1.13884 1.13842 1.14181 1.14135 1.14554 1.14502
          1.15013 1.14955 1.15568 1.15503 1.16214 1.16144 1.16887 1.16794 1.17222 1.16869 1.16042 1.18634
          1.81109 1.58222 1.12605 1.1262 1.12631 1.12636 1.12602 1.126 1.126 1.126 1.12614 1.13086
          1.13114 1.13171 1.13261 1.13388 1.13558 1.13779 1.14061 1.14412 1.14846 1.15373 1.15996 1.16646
          1.16736 1.1775 1.54311 1.12603 1.12612 1.12619 1.12622 1.12601 1.126 1.126 1.126 1.12612
          1.13047 1.13073 1.13128 1.13212 1.13332 1.13492 1.13699 1.13961 1.14288 1.1469 1.15179 1.15764
          1.16404 1.16513 1.16356 1.48716 1.12603 1.12606 1.12609 1.12611 1.12601 1.126 1.126 1.126
          1.12611 1.13005 1.1303 1.1308 1.13159 1.13269 1.13415 1.13604 1.13841 1.14136 1.14496 1.1493
          1.15451 1.16062 1.1669 1.18096 1.15825 1.126 1.126 1.12602 1.12603 1.12601 1.126 1.126
          1.126 1.1261 1.12962 1.12985 1.13031 1.13101 1.132 1.13331 1.13498 1.13708 1.13965 1.14274
          1.14643 1.15076 1.15583 1.16167 1.16376 1.16382 1.12593 1.12594 1.12594 1.12595 1.126 1.126
          1.126 1.126 1.12608 1.12919 1.12939 1.12979 1.13042 1.13129 1.13243 1.13388 1.13568 1.13785
          1.14042 1.14341 1.14679 1.15047 1.15394 1.15609 1.15683 1.12586 1.12586 1.12586 1.12587 1.126
          1.126 1.126 1.126 1.12607 1.12875 1.12892 1.12928 1.12982 1.13057 1.13155 1.13277 1.13427
          1.13606 1.13813 1.14047 1.143 1.14555 1.14779 1.14932 1.14986 1.12577 1.12577 1.12578 1.12578
          1.126 1.126 1.126 1.126 1.12606 1.12831 1.12847 1.12877 1.12923 1.12986 1.13068 1.1317
          1.13293 1.13436 1.13599 1.13778 1.13963 1.14142 1.14293 1.14395 1.14431 1.12568 1.12568 1.12568
          1.12568 1.12599 1.126 1.126 1.126 1.12604 1.12789 1.12802 1.12827 1.12866 1.12919 1.12986
          1.13069 1.13168 1.13281 1.13408 1.13542 1.13678 1.13804 1.13909 1.13978 1.14002 1.12556 1.12556
          1.12557 1.12557 1.12599 1.126 1.126 1.126 1.12603 1.12748 1.12758 1.1278 1.12812 1.12855
          1.1291 1.12977 1.13056 1.13144 1.13241 1.13342 1.13441 1.13532 1.13605 1.13653 1.13669 1.12543
          1.12543 1.12544 1.12544 1.12598 1.126 1.126 1.126 1.12602 1.12708 1.12717 1.12735 1.12761
          1.12797 1.12841 1.12895 1.12957 1.13026 1.131 1.13176 1.13249 1.13315 1.13367 1.13401 1.13412
          1.12528 1.12528 1.12529 1.12529 1.12598 1.126 1.126 1.126 1.12601 1.12669 1.12677 1.12692
          1.12714 1.12743 1.1278 1.12823 1.12872 1.12926 1.12983 1.13041 1.13095 1.13144 1.13182 1.13206
          1.13214 1.12511 1.12511 1.12512 1.12511 1.12597 1.126 1.126 1.126 1.126 1.1263 1.12638
          1.12651 1.1267 1.12695 1.12725 1.1276 1.128 1.12843 1.12888 1.12933 1.12975 1.13011 1.1304
          1.13058 1.13064 1.12491 1.12492 1.12493 1.12491 1.12594 1.12598 1.12598 1.12598 1.12597 1.12591
          1.126 1.12613 1.1263 1.12652 1.12677 1.12707 1.12741 1.12776 1.12813 1.12849 1.12883 1.12912
          1.12934 1.12949 1.12953 1.12467 1.12468 1.12472 1.12485 1.1249 1.12504 1.12516 1.12527 1.12539
          1.12554 1.12565 1.12578 1.12594 1.12613 1.12637 1.12663 1.12693 1.12724 1.12756 1.12788 1.12817
          1.12842 1.12861 1.12873 1.12877 1.12439 1.1244 1.12445 1.12453 1.12462 1.12473 1.12485 1.12496
          1.12508 1.1252 1.12532 1.12545 1.12561 1.1258 1.12602 1.12628 1.12656 1.12686 1.12717 1.12747
          1.12774 1.12798 1.12816 1.12827 1.12831
        </DataArray>
        <DataArray type="Float32" Name="saturation_l" NumberOfComponents="1" format="ascii">
          0 0 0 0 0 0 0 0 0 0 0 0
          0 0 0 0 0 0 0 0 0 0 0 0
          0 0 0 0 0 0 0 0 0 0 0 0
          0 0 0 0 0 0 0 0 0 6.90292e-05 0.121425 0.0660214
          0.986135 0.965593 0 0 0 0 0 0 0 0 0 0
          0 0 0 0 0 0 0 0 0 0 0 0
          2.59772e-05 0.0535643 0.961532 0 0 0 0 0 0 0 0 0
          0 0 0 0 0 0 0 0 0 0 0 0
          0 0 0.0409241 0.95989 0 0 0 0 0 0 0 0
          0 0 0 0 0 0 0 0 0 0 0 0
          0 0 0 0.00228858 0.435824 0 0 0 0 0 0 0
          0 0 0 0 0 0 0 0 0 0 0 0
          0 0 0 0 0 0 0 0 0 0 0 0
          0 0 0 0 0 0 0 0 0 0 0 0
          0 0 0 0 0 0 0 0 0 0 0 0
          0 0 0 0 0 0 0 0 0 0 0 0
          0 0 0 0 0 0 0 0 0 0 0 0
          0 0 0 0 0 0 0 0 0 0 0 0
          0 0 0 0 0 0 0 0 0 0 0 0
          0 0 0 0 0 0 0 0 0 0 0 0
          0 0 0 0 0 0 0 0 0 0 0 0
          0 0 0 0 0 0 0 0 0 0 0 0
          0 0 0 0 0 0 0 0 0 0 0 0
          0 0 0 0 0 0 0 0 0 0 0 0
          0 0 0 0 0 0 0 0 0 0 0 0
          0 0 0 0 0 0 0 0 0 0 0 0
          0 0 0 0 0 0 0 0 0 0 0 0
          0 0 0 0 0 0 0 0 0 0 0 0
          0 0 0 0 0 0 0 0 0 0 0 0
          0 0 0 0 0 0 0 0 0 0 0 0
          0 0 0 0 0 0 0 0 0 0 0 0
          0 0 0 0 0 0 0 0 0 0 0 0
          0 0 0 0 0 0 0 0 0 0 0 0
          0 0 0 0 0 0 0 0 0 0 0 0
          0 0 0 0 0 0 0 0 0 0 0 0
          0 0 0 0 0
        </DataArray>
        <DataArray type="Float32" Name="saturation_g" NumberOfComponents="1" format="ascii">
          1 1 1 1 1 1 1 1 1 1 1 1
          1 1 1 1 1 1 1 1 1 1 1 1
          1 1 1 1 1 1 1 1 1 1 1 1
          1 1 1 1 1 1 1 1 1 0.999931 0.878575 0.933979
          0.0138647 0.0344074 1 1 1 1 1 1 1 1 1 1
          1 1 1 1 1 1 1 1 1 1 1 1
          0.999974 0.946436 0.038468 1 1 1 1 1 1 1 1 1
          1 1 1 1 1 1 1 1 1 1 1 1
          1 1 0.959076 0.0401101 1 1 1 1 1 1 1 1
          1 1 1 1 1 1 1 1 1 1 1 1
          1 1 1 0.997711 0.564176 1 1 1 1 1 1 1
          1 1 1 1 1 1 1 1 1 1 1 1
          1 1 1 1 1 1 1 1 1 1 1 1
          1 1 1 1 1 1 1 1 1 1 1 1
          1 1 1 1 1 1 1 1 1 1 1 1
          1 1 1 1 1 1 1 1 1 1 1 1
          1 1 1 1 1 1 1 1 1 1 1 1
          1 1 1 1 1 1 1 1 1 1 1 1
          1 1 1 1 1 1 1 1 1 1 1 1
          1 1 1 1 1 1 1 1 1 1 1 1
          1 1 1 1 1 1 1 1 1 1 1 1
          1 1 1 1 1 1 1 1 1 1 1 1
          1 1 1 1 1 1 1 1 1 1 1 1
          1 1 1 1 1 1 1 1 1 1 1 1
          1 1 1 1 1 1 1 1 1 1 1 1
          1 1 1 1 1 1 1 1 1 1 1 1
          1 1 1 1 1 1 1 1 1 1 1 1
          1 1 1 1 1 1 1 1 1 1 1 1
          1 1 1 1 1 1 1 1 1 1 1 1
          1 1 1 1 1 1 1 1 1 1 1 1
          1 1 1 1 1 1 1 1 1 1 1 1
          1 1 1 1 1 1 1 1 1 1 1 1
          1 1 1 1 1 1 1 1 1 1 1 1
          1 1 1 1 1 1 1 1 1 1 1 1
          1 1 1 1 1 1 1 1 1 1 1 1
          1 1 1 1 1
        </DataArray>
        <DataArray type="Float32" Name="relativePerm_l" NumberOfComponents="1" format="ascii">
          0 0 0 0 0 0 0 0 0 0 0 0
          0 0 0 0 0 0 0 0 0 0 0 0
          0 0 0 0 0 0 0 0 0 0 0 0
          0 0 0 0 0 0 0 0 -1.73472e-18 4.23631e-08 0.100393 0.0419115
          0.998232 0.988572 0 0 0 0 0 0 0 0 0 0
          0 0 0 0 0 0 0 0 0 0 0 0
          5.99873e-09 0.0287624 0.985581 0 0 0 0 0 0 0 0 0
          0 0 0 0 0 0 0 0 0 0 0 0
          0 0 0.0164101 0.984265 0 0 0 0 0 0 0 0
          0 0 0 0 0 0 0 0 0 0 0 0
          0 0 0 4.68227e-05 0.432259 0 0 0 0 0 0 0
          0 0 0 0 0 0 0 0 0 0 0 0
          0 0 0 0 0 0 0 0 0 0 0 0
          0 0 0 0 0 0 0 0 0 0 0 0
          0 0 0 0 0 0 0 0 0 0 0 0
          0 0 0 0 0 0 0 0 0 0 0 0
          0 0 0 0 0 0 0 0 0 0 0 0
          0 0 0 0 0 0 0 0 0 0 0 0
          0 0 0 0 0 0 0 0 0 0 0 0
          0 0 0 0 0 0 0 0 0 0 0 0
          0 0 0 0 0 0 0 0 0 0 0 0
          0 0 0 0 0 0 0 0 0 0 0 0
          0 0 0 0 0 0 0 0 0 0 0 0
          0 0 0 0 0 0 0 0 0 0 0 0
          0 0 0 0 0 0 0 0 0 0 0 0
          0 0 0 0 0 0 0 0 0 0 0 0
          0 0 0 0 0 0 0 0 0 0 0 0
          0 0 0 0 0 0 0 0 0 0 0 0
          0 0 0 0 0 0 0 0 0 0 0 0
          0 0 0 0 0 0 0 0 0 0 0 0
          0 0 0 0 0 0 0 0 0 0 0 0
          0 0 0 0 0 0 0 0 0 0 0 0
          0 0 0 0 0 0 0 0 0 0 0 0
          0 0 0 0 0 0 0 0 0 0 0 0
          0 0 0 0 0 0 0 0 0 0 0 0
          0 0 0 0 0
        </DataArray>
        <DataArray type="Float32" Name="relativePerm_g" NumberOfComponents="1" format="ascii">
          1 1 1 1 1 1 1 1 1 1 1 1
          1 1 1 1 1 1 1 1 1 1 1 1
          1 1 1 1 1 1 1 1 1 1 1 1
          1 1 1 1 1 1 1 1 1 1 0.899607 0.958088
          0.00176795 0.0114285 1 1 1 1 1 1 1 1 1 1
          1 1 1 1 1 1 1 1 1 1 1 1
          1 0.971238 0.0144186 1 1 1 1 1 1 1 1 1
          1 1 1 1 1 1 1 1 1 1 1 1
          1 1 0.98359 0.0157346 1 1 1 1 1 1 1 1
          1 1 1 1 1 1 1 1 1 1 1 1
          1 1 1 0.999953 0.567741 1 1 1 1 1 1 1
          1 1 1 1 1 1 1 1 1 1 1 1
          1 1 1 1 1 1 1 1 1 1 1 1
          1 1 1 1 1 1 1 1 1 1 1 1
          1 1 1 1 1 1 1 1 1 1 1 1
          1 1 1 1 1 1 1 1 1 1 1 1
          1 1 1 1 1 1 1 1 1 1 1 1
          1 1 1 1 1 1 1 1 1 1 1 1
          1 1 1 1 1 1 1 1 1 1 1 1
          1 1 1 1 1 1 1 1 1 1 1 1
          1 1 1 1 1 1 1 1 1 1 1 1
          1 1 1 1 1 1 1 1 1 1 1 1
          1 1 1 1 1 1 1 1 1 1 1 1
          1 1 1 1 1 1 1 1 1 1 1 1
          1 1 1 1 1 1 1 1 1 1 1 1
          1 1 1 1 1 1 1 1 1 1 1 1
          1 1 1 1 1 1 1 1 1 1 1 1
          1 1 1 1 1 1 1 1 1 1 1 1
          1 1 1 1 1 1 1 1 1 1 1 1
          1 1 1 1 1 1 1 1 1 1 1 1
          1 1 1 1 1 1 1 1 1 1 1 1
          1 1 1 1 1 1 1 1 1 1 1 1
          1 1 1 1 1 1 1 1 1 1 1 1
          1 1 1 1 1 1 1 1 1 1 1 1
          1 1 1 1 1 1 1 1 1 1 1 1
          1 1 1 1 1
        </DataArray>
        <DataArray type="Float32" Name="porosity" NumberOfComponents="1" format="ascii">
          0.3 0.3 0.3 0.3 0.3 0.3 0.3 0.3 0.3 0.3 0.3 0.3
          0.3 0.3 0.3 0.3 0.3 0.3 0.3 0.3 0.3 0.3 0.3 0.3
          0.3 0.3 0.3 0.3 0.3 0.3 0.3 0.3 0.3 0.3 0.3 0.3
          0.3 0.3 0.3 0.3 0.3 0.3 0.3 0.3 0.3 0.3 0.3 0.3
          0.3 0.3 0.3 0.3 0.3 0.3 0.3 0.3 0.3 0.3 0.3 0.3
          0.3 0.3 0.3 0.3 0.3 0.3 0.3 0.3 0.3 0.3 0.3 0.3
          0.3 0.3 0.3 0.3 0.3 0.3 0.3 0.3 0.3 0.3 0.3 0.3
          0.3 0.3 0.3 0.3 0.3 0.3 0.3 0.3 0.3 0.3 0.3 0.3
          0.3 0.3 0.3 0.3 0.3 0.3 0.3 0.3 0.3 0.3 0.3 0.3
          0.3 0.3 0.3 0.3 0.3 0.3 0.3 0.3 0.3 0.3 0.3 0.3
          0.3 0.3 0.3 0.3 0.3 0.3 0.3 0.3 0.3 0.3 0.3 0.3
          0.3 0.3 0.3 0.3 0.3 0.3 0.3 0.3 0.3 0.3 0.3 0.3
          0.3 0.3 0.3 0.3 0.3 0.3 0.3 0.3 0.3 0.3 0.3 0.3
          0.3 0.3 0.3 0.3 0.3 0.3 0.3 0.3 0.3 0.3 0.3 0.3
          0.3 0.3 0.3 0.3 0.3 0.3 0.3 0.3 0.3 0.3 0.3 0.3
          0.3 0.3 0.3 0.3 0.3 0.3 0.3 0.3 0.3 0.3 0.3 0.3
          0.3 0.3 0.3 0.3 0.3 0.3 0.3 0.3 0.3 0.3 0.3 0.3
          0.3 0.3 0.3 0.3 0.3 0.3 0.3 0.3 0.3 0.3 0.3 0.3
          0.3 0.3 0.3 0.3 0.3 0.3 0.3 0.3 0.3 0.3 0.3 0.3
          0.3 0.3 0.3 0.3 0.3 0.3 0.3 0.3 0.3 0.3 0.3 0.3
          0.3 0.3 0.3 0.3 0.3 0.3 0.3 0.3 0.3 0.3 0.3 0.3
          0.3 0.3 0.3 0.3 0.3 0.3 0.3 0.3 0.3 0.3 0.3 0.3
          0.3 0.3 0.3 0.3 0.3 0.3 0.3 0.3 0.3 0.3 0.3 0.3
          0.3 0.3 0.3 0.3 0.3 0.3 0.3 0.3 0.3 0.3 0.3 0.3
          0.3 0.3 0.3 0.3 0.3 0.3 0.3 0.3 0.3 0.3 0.3 0.3
          0.3 0.3 0.3 0.3 0.3 0.3 0.3 0.3 0.3 0.3 0.3 0.3
          0.3 0.3 0.3 0.3 0.3 0.3 0.3 0.3 0.3 0.3 0.3 0.3
          0.3 0.3 0.3 0.3 0.3 0.3 0.3 0.3 0.3 0.3 0.3 0.3
          0.3 0.3 0.3 0.3 0.3 0.3 0.3 0.3 0.3 0.3 0.3 0.3
          0.3 0.3 0.3 0.3 0.3 0.3 0.3 0.3 0.3 0.3 0.3 0.3
          0.3 0.3 0.3 0.3 0.3 0.3 0.3 0.3 0.3 0.3 0.3 0.3
          0.3 0.3 0.3 0.3 0.3 0.3 0.3 0.3 0.3 0.3 0.3 0.3
          0.3 0.3 0.3 0.3 0.3 0.3 0.3 0.3 0.3 0.3 0.3 0.3
          0.3 0.3 0.3 0.3 0.3 0.3 0.3 0.3 0.3 0.3 0.3 0.3
          0.3 0.3 0.3 0.3 0.3 0.3 0.3 0.3 0.3 0.3 0.3 0.3
          0.3 0.3 0.3 0.3 0.3
        </DataArray>
        <DataArray type="Float32" Name="moleFrac_l^H2O" NumberOfComponents="1" format="ascii">
          0.315515 0.315638 0.315504 0.315572 0.315694 0.31562 0.315725 0.315642 0.315499 0.315491 0.315488 0.315483
          0.315488 0.315483 0.315488 0.315483 0.315534 0.315526 0.317048 0.316948 0.317122 0.317028 0.317288 0.317193
          0.317551 0.317453 0.317924 0.317821 0.318425 0.318316 0.319078 0.31896 0.319911 0.319782 0.320956 0.320812
          0.322263 0.322102 0.32418 0.324048 0.330885 0.332117 0.379042 0.406638 0.668353 0.999988 0.999988 0.999988
          0.999982 0.999984 0.315495 0.315538 0.315569 0.315584 0.315488 0.315483 0.315483 0.315483 0.315521 0.316844
          0.316922 0.317083 0.317334 0.317689 0.318166 0.318786 0.319574 0.32056 0.321792 0.323621 0.331181 0.404809
          0.999988 0.999988 0.999984 0.31549 0.315515 0.315534 0.315543 0.315486 0.315483 0.315483 0.315483 0.315517
          0.316733 0.316808 0.31696 0.317198 0.317533 0.31798 0.31856 0.319295 0.320212 0.321347 0.322916 0.328191
          0.380742 0.931097 0.999988 0.999985 0.31549 0.315499 0.315508 0.315513 0.315484 0.315483 0.315483 0.315483
          0.315512 0.316617 0.316687 0.316828 0.317047 0.317355 0.317765 0.318294 0.31896 0.319785 0.320795 0.322069
          0.324655 0.342527 0.495426 0.999988 0.999988 0.315481 0.315483 0.315487 0.315489 0.315483 0.315483 0.315483
          0.315483 0.315509 0.316497 0.31656 0.316688 0.316886 0.317163 0.31753 0.317999 0.318586 0.319305 0.320173
          0.321212 0.322564 0.326255 0.353284 0.510727 0.487274 0.315463 0.315464 0.315466 0.315467 0.315482 0.315483
          0.315483 0.315483 0.315505 0.316375 0.316431 0.316545 0.31672 0.316963 0.317284 0.31769 0.318193 0.318801
          0.319522 0.320359 0.321317 0.322527 0.32584 0.344476 0.346226 0.315443 0.315443 0.315444 0.315444 0.315482
          0.315483 0.315483 0.315483 0.315501 0.316252 0.316301 0.3164 0.316552 0.316762 0.317035 0.317379 0.317799
          0.3183 0.318881 0.319535 0.320244 0.320968 0.321735 0.323384 0.323871 0.315419 0.315419 0.315419 0.31542
          0.315481 0.315483 0.315483 0.315483 0.315498 0.31613 0.316173 0.316257 0.316387 0.316564 0.316794 0.317079
          0.317422 0.317825 0.318282 0.318782 0.319302 0.319802 0.320232 0.320572 0.320695 0.315391 0.315391 0.315392
          0.315392 0.31548 0.315483 0.315483 0.315483 0.315494 0.316011 0.316047 0.316119 0.316227 0.316375 0.316564
          0.316797 0.317073 0.317391 0.317744 0.318121 0.318502 0.318856 0.319148 0.319344 0.319412 0.31536 0.31536
          0.31536 0.315361 0.315479 0.315483 0.315483 0.315483 0.315491 0.315896 0.315926 0.315986 0.316076 0.316197
          0.316352 0.316539 0.316759 0.317007 0.317278 0.317561 0.317839 0.318093 0.318298 0.318432 0.318478 0.315323
          0.315323 0.315324 0.315324 0.315477 0.315483 0.315483 0.315483 0.315488 0.315784 0.315809 0.315859 0.315933
          0.316033 0.316158 0.316309 0.316482 0.316675 0.316883 0.317095 0.317301 0.317484 0.31763 0.317725 0.317757
          0.315281 0.315281 0.315282 0.315282 0.315476 0.315483 0.315483 0.315483 0.315484 0.315674 0.315696 0.315739
          0.315801 0.315883 0.315985 0.316106 0.316244 0.316395 0.316555 0.316716 0.31687 0.317005 0.317111 0.317179
          0.317203 0.315233 0.315233 0.315234 0.315234 0.315474 0.315482 0.315483 0.315482 0.315481 0.315567 0.315587
          0.315625 0.315679 0.315748 0.315832 0.315931 0.316042 0.316163 0.316289 0.316414 0.316532 0.316634 0.316714
          0.316765 0.316782 0.315176 0.315178 0.315183 0.315177 0.315466 0.315475 0.315476 0.315476 0.315473 0.315456
          0.315482 0.315519 0.315567 0.315627 0.315699 0.315783 0.315876 0.315976 0.316079 0.31618 0.316274 0.316356
          0.316419 0.316459 0.316472 0.31511 0.315113 0.315124 0.315159 0.315172 0.315213 0.315247 0.315278 0.315311
          0.315354 0.315384 0.31542 0.315464 0.315519 0.315584 0.315659 0.315742 0.31583 0.31592 0.316008 0.316089
          0.316159 0.316212 0.316246 0.316257 0.31503 0.315034 0.315048 0.31507 0.315096 0.315127 0.31516 0.315191
          0.315224 0.315259 0.315292 0.315328 0.315372 0.315425 0.315488 0.31556 0.315639 0.315723 0.315809 0.315892
          0.315969 0.316035 0.316086 0.316118 0.316129
        </DataArray>
        <DataArray type="Float32" Name="moleFrac_l^N2" NumberOfComponents="1" format="ascii">
          1.14733e-05 1.14777e-05 1.14729e-05 1.14754e-05 1.14798e-05 1.14771e-05 1.14809e-05 1.14779e-05 1.14727e-05 1.14724e-05 1.14723e-05 1.14721e-05
          1.14723e-05 1.14721e-05 1.14723e-05 1.14721e-05 1.1474e-05 1.14737e-05 1.1529e-05 1.15254e-05 1.15317e-05 1.15283e-05 1.15378e-05 1.15343e-05
          1.15473e-05 1.15437e-05 1.15609e-05 1.15571e-05 1.15791e-05 1.15751e-05 1.16029e-05 1.15986e-05 1.16332e-05 1.16285e-05 1.16711e-05 1.16659e-05
          1.17179e-05 1.1712e-05 1.17743e-05 1.17677e-05 1.18391e-05 1.18315e-05 1.18966e-05 1.18805e-05 1.18625e-05 1.17476e-05 1.16629e-05 1.19287e-05
          1.83351e-05 1.59881e-05 1.14726e-05 1.14741e-05 1.14752e-05 1.14758e-05 1.14723e-05 1.14721e-05 1.14721e-05 1.14721e-05 1.14735e-05 1.15216e-05
          1.15245e-05 1.15303e-05 1.15394e-05 1.15524e-05 1.15697e-05 1.15922e-05 1.16209e-05 1.16567e-05 1.17009e-05 1.17545e-05 1.18166e-05 1.18658e-05
          1.1734e-05 1.1838e-05 1.55871e-05 1.14724e-05 1.14733e-05 1.1474e-05 1.14743e-05 1.14722e-05 1.14721e-05 1.14721e-05 1.14721e-05 1.14733e-05
          1.15176e-05 1.15203e-05 1.15258e-05 1.15345e-05 1.15467e-05 1.15629e-05 1.1584e-05 1.16107e-05 1.16441e-05 1.1685e-05 1.17348e-05 1.17935e-05
          1.18467e-05 1.17275e-05 1.1695e-05 1.50134e-05 1.14724e-05 1.14727e-05 1.1473e-05 1.14732e-05 1.14722e-05 1.14721e-05 1.14721e-05 1.14721e-05
          1.14732e-05 1.15134e-05 1.15159e-05 1.1521e-05 1.1529e-05 1.15402e-05 1.15551e-05 1.15743e-05 1.15986e-05 1.16286e-05 1.16652e-05 1.17094e-05
          1.17622e-05 1.18207e-05 1.18488e-05 1.18735e-05 1.16406e-05 1.1472e-05 1.14721e-05 1.14723e-05 1.14723e-05 1.14721e-05 1.14721e-05 1.14721e-05
          1.14721e-05 1.14731e-05 1.1509e-05 1.15113e-05 1.15159e-05 1.15232e-05 1.15332e-05 1.15466e-05 1.15636e-05 1.15849e-05 1.16111e-05 1.16427e-05
          1.16802e-05 1.17243e-05 1.17754e-05 1.18289e-05 1.1813e-05 1.18192e-05 1.14714e-05 1.14714e-05 1.14715e-05 1.14715e-05 1.14721e-05 1.14721e-05
          1.14721e-05 1.14721e-05 1.14729e-05 1.15045e-05 1.15066e-05 1.15107e-05 1.15171e-05 1.1526e-05 1.15376e-05 1.15524e-05 1.15707e-05 1.15928e-05
          1.1619e-05 1.16494e-05 1.16839e-05 1.17213e-05 1.17562e-05 1.17738e-05 1.1781e-05 1.14707e-05 1.14707e-05 1.14707e-05 1.14707e-05 1.14721e-05
          1.14721e-05 1.14721e-05 1.14721e-05 1.14728e-05 1.15001e-05 1.15019e-05 1.15055e-05 1.1511e-05 1.15186e-05 1.15286e-05 1.15411e-05 1.15564e-05
          1.15745e-05 1.15957e-05 1.16195e-05 1.16452e-05 1.16712e-05 1.16941e-05 1.17093e-05 1.17147e-05 1.14698e-05 1.14698e-05 1.14698e-05 1.14698e-05
          1.1472e-05 1.14721e-05 1.14721e-05 1.14721e-05 1.14727e-05 1.14957e-05 1.14972e-05 1.15003e-05 1.1505e-05 1.15114e-05 1.15198e-05 1.15302e-05
          1.15426e-05 1.15573e-05 1.15739e-05 1.15921e-05 1.1611e-05 1.16292e-05 1.16446e-05 1.1655e-05 1.16586e-05 1.14688e-05 1.14688e-05 1.14688e-05