<?xml version="1.0"?>
<VTKFile type="UnstructuredGrid" version="0.1" byte_order="LittleEndian">
  <UnstructuredGrid>
    <Piece NumberOfCells="40" NumberOfPoints="63">
      <PointData Scalars="pressure_l" Vectors="filterVelocity_l">
        <DataArray type="Float32" Name="pressure_l" NumberOfComponents="1" format="ascii">
          197834 193155 196746 192223 188489 187734 183835 183269 179190 178822 174552 174388
          169914 169960 165275 165537 160629 161113 155971 156684 151296 152248 146601 147798
          141880 143329 137129 138834 132345 134303 127524 129724 122667 125080 117774 120349
          112851 115504 107908 110506 102965 105305 193390 189609 185746 181821 177852 173852
          169836 165815 161802 157809 153848 149935 146085 142318 138657 135128 131765 128611
          125716 123147 120984
        </DataArray>
        <DataArray type="Float32" Name="density_l" NumberOfComponents="1" format="ascii">
          998.259 998.257 998.258 998.256 998.255 998.254 998.253 998.252 998.25 998.25 998.248 998.248
          998.246 998.246 998.244 998.244 998.242 998.242 998.24 998.24 998.238 998.238 998.235 998.236
          998.233 998.234 998.231 998.232 998.229 998.229 998.226 998.227 998.224 998.225 998.222 998.223
          998.219 998.22 998.217 998.218 998.215 998.216 998.257 998.255 998.253 998.252 998.25 998.248
          998.246 998.244 998.242 998.241 998.239 998.237 998.235 998.233 998.231 998.23 998.228 998.226
          998.225 998.223 998.222
        </DataArray>
        <DataArray type="Float32" Name="porosity" NumberOfComponents="1" format="ascii">
          0.4 0.4 0.4 0.4 0.4 0.4 0.4 0.4 0.4 0.4 0.4 0.4
          0.4 0.4 0.4 0.4 0.4 0.4 0.4 0.4 0.4 0.4 0.4 0.4
          0.4 0.4 0.4 0.4 0.4 0.4 0.4 0.4 0.4 0.4 0.4 0.4
          0.4 0.4 0.4 0.4 0.4 0.4 0.4 0.4 0.4 0.4 0.4 0.4
          0.4 0.4 0.4 0.4 0.4 0.4 0.4 0.4 0.4 0.4 0.4 0.4
          0.4 0.4 0.4
        </DataArray>
        <DataArray type="Float32" Name="filterVelocity_l" NumberOfComponents="3" format="ascii">
          0.00926326 0.00020153 0 0.00924477 0.000184991 0 0.00888803 0.000394399 0 0.00887098 0.000352602 0
          0.0092112 0.000150196 0 0.00884113 0.000273163 0 0.0091849 0.000112633 0 0.00881949 0.000200716 0
          0.00916633 7.32294e-05 0 0.00880433 0.000133437 0 0.00915579 3.24693e-05 0 0.00879444 6.96069e-05 0
          0.00915351 -9.46828e-06 0 0.00878905 7.57141e-06 0 0.00915966 -5.25948e-05 0 0.00878758 -5.42787e-05 0
          0.00917455 -9.70359e-05 0 0.00878994 -0.000117562 0 0.00919847 -0.000142943 0 0.00879641 -0.000183935 0
          0.00923173 -0.000190414 0 0.00880752 -0.000255116 0 0.00927464 -0.000239408 0 0.00882414 -0.000332933 0
          0.00932748 -0.000289634 0 0.00884761 -0.000419356 0 0.00939045 -0.000340416 0 0.00887981 -0.00051653 0
          0.00946357 -0.00039051 0 0.00892329 -0.000626809 0 0.00954654 -0.000437861 0 0.0089815 -0.000752778 0
          0.00963854 -0.000479277 0 0.00905902 -0.00089727 0 0.00973799 -0.000509977 0 0.00916195 -0.00106338 0
          0.00984213 -0.000522995 0 0.0092983 -0.00125444 0 0.00994654 -0.000508368 0 0.00947861 -0.00147407 0
          0.00999785 -0.00049272 0 0.00957765 -0.00159388 0 0.00792256 0.000596258 0 0.00797468 0.000527217 0
          0.00806613 0.000400866 0 0.00813448 0.000291975 0 0.00818261 0.000195719 0 0.00821255 0.000107995 0
          0.00822559 2.51927e-05 0 0.0082226 -5.60116e-05 0 0.00820344 -0.000138795 0 0.00816738 -0.000226414 0
          0.00811318 -0.000322335 0 0.00803885 -0.000430424 0 0.00794166 -0.000555157 0 0.00781792 -0.000701862 0
          0.00766289 -0.000877021 0 0.00747058 -0.00108864 0 0.00723348 -0.00134671 0 0.00694242 -0.0016638 0
          0.00658636 -0.00205579 0 0.0061527 -0.00254277 0 0.00590792 -0.00283419 0
        </DataArray>
        <DataArray type="Float32" Name="moleFrac_l^H2O" NumberOfComponents="1" format="ascii">
          0.99998 0.99998 0.99998 0.99998 0.99998 0.99998 0.99998 0.99998 0.99998 0.99998 0.99998 0.99998
          0.99998 0.99998 0.99998 0.99998 0.99998 0.99998 0.99998 0.99998 0.99998 0.99998 0.99998 0.99998
          0.99998 0.99998 0.99998 0.999981 0.999981 0.999981 0.999981 0.999981 0.999981 0.999981 0.999981 0.999981
          0.999981 0.999981 0.999981 0.999982 0.999982 0.999982 0.99998 0.99998 0.99998 0.99998 0.99998 0.99998
          0.99998 0.99998 0.99998 0.99998 0.99998 0.99998 0.999981 0.999981 0.999981 0.999981 0.999981 0.999982
          0.999982 0.999983 0.999983
        </DataArray>
        <DataArray type="Float32" Name="moleFrac_l^N2" NumberOfComponents="1" format="ascii">
          2e-05 1.99999e-05 2e-05 1.99999e-05 1.99996e-05 1.99994e-05 1.99984e-05 1.99979e-05 1.99955e-05 1.99943e-05 1.99895e-05 1.99869e-05
          1.99788e-05 1.99738e-05 1.99613e-05 1.99524e-05 1.99347e-05 1.99203e-05 1.98968e-05 1.98747e-05 1.98454e-05 1.9813e-05 1.97784e-05 1.97328e-05
          1.9694e-05 1.96318e-05 1.95911e-05 1.95086e-05 1.94686e-05 1.93616e-05 1.93261e-05 1.919e-05 1.91635e-05 1.89932e-05 1.89812e-05 1.87711e-05
          1.87798e-05 1.85233e-05 1.85605e-05 1.82493e-05 1.84471e-05 1.81063e-05 2e-05 1.99998e-05 1.9999e-05 1.99964e-05 1.99905e-05 1.99791e-05
          1.99595e-05 1.99288e-05 1.98835e-05 1.98204e-05 1.9736e-05 1.9627e-05 1.94902e-05 1.93223e-05 1.912e-05 1.88799e-05 1.85979e-05 1.8269e-05
          1.78864e-05 1.744e-05 1.71866e-05
        </DataArray>
        <DataArray type="Float32" Name="massFrac_l^H2O" NumberOfComponents="1" format="ascii">
          0.999969 0.999969 0.999969 0.999969 0.999969 0.999969 0.999969 0.999969 0.999969 0.999969 0.999969 0.999969
          0.999969 0.999969 0.999969 0.999969 0.999969 0.999969 0.999969 0.999969 0.999969 0.999969 0.999969 0.999969
          0.999969 0.999969 0.99997 0.99997 0.99997 0.99997 0.99997 0.99997 0.99997 0.99997 0.99997 0.999971
          0.999971 0.999971 0.999971 0.999972 0.999971 0.999972 0.999969 0.999969 0.999969 0.999969 0.999969 0.999969
          0.999969 0.999969 0.999969 0.999969 0.999969 0.999969 0.99997 0.99997 0.99997 0.999971 0.999971 0.999972
          0.999972 0.999973 0.999973
        </DataArray>
        <DataArray type="Float32" Name="massFrac_l^N2" NumberOfComponents="1" format="ascii">
          3.10994e-05 3.10993e-05 3.10994e-05 3.10993e-05 3.10987e-05 3.10986e-05 3.10969e-05 3.10962e-05 3.10924e-05 3.10905e-05 3.10831e-05 3.10791e-05
          3.10664e-05 3.10586e-05 3.10392e-05 3.10255e-05 3.09979e-05 3.09755e-05 3.0939e-05 3.09046e-05 3.0859e-05 3.08087e-05 3.07548e-05 3.06839e-05
          3.06237e-05 3.0527e-05 3.04636e-05 3.03352e-05 3.02731e-05 3.01067e-05 3.00515e-05 2.98399e-05 2.97987e-05 2.9534e-05 2.95152e-05 2.91885e-05
          2.92021e-05 2.88032e-05 2.8861e-05 2.83772e-05 2.86847e-05 2.81549e-05 3.10994e-05 3.10992e-05 3.10978e-05 3.10938e-05 3.10846e-05 3.10669e-05
          3.10365e-05 3.09887e-05 3.09183e-05 3.08202e-05 3.0689e-05 3.05195e-05 3.03067e-05 3.00456e-05 2.97311e-05 2.93577e-05 2.89192e-05 2.84078e-05
          2.78128e-05 2.71188e-05 2.67246e-05
        </DataArray>
        <DataArray type="Float32" Name="temperature" NumberOfComponents="1" format="ascii">
          293.15 293.15 293.15 293.15 293.15 293.15 293.15 293.15 293.15 293.15 293.15 293.15
          293.15 293.15 293.15 293.15 293.15 293.15 293.15 293.15 293.15 293.15 293.15 293.15
          293.15 293.15 293.15 293.15 293.15 293.15 293.15 293.15 293.15 293.15 293.15 293.15
          293.15 293.15 293.15 293.15 293.15 293.15 293.15 293.15 293.15 293.15 293.15 293.15
          293.15 293.15 293.15 293.15 293.15 293.15 293.15 293.15 293.15 293.15 293.15 293.15
          293.15 293.15 293.15
        </DataArray>
      </PointData>
      <Points>
        <DataArray type="Float32" Name="Coordinates" NumberOfComponents="3" format="ascii">
          0 0 0 0.05 0 0 0 0.5 0 0.05 0.5 0
          0.1 0 0 0.1 0.5 0 0.15 0 0 0.15 0.5 0
          0.2 0 0 0.2 0.5 0 0.25 0 0 0.25 0.5 0
          0.3 0 0 0.3 0.5 0 0.35 0 0 0.35 0.5 0
          0.4 0 0 0.4 0.5 0 0.45 0 0 0.45 0.5 0
          0.5 0 0 0.5 0.5 0 0.55 0 0 0.55 0.5 0
          0.6 0 0 0.6 0.5 0 0.65 0 0 0.65 0.5 0
          0.7 0 0 0.7 0.5 0 0.75 0 0 0.75 0.5 0
          0.8 0 0 0.8 0.5 0 0.85 0 0 0.85 0.5 0
          0.9 0 0 0.9 0.5 0 0.95 0 0 0.95 0.5 0
          1 0 0 1 0.5 0 0 1 0 0.05 1 0
          0.1 1 0 0.15 1 0 0.2 1 0 0.25 1 0
          0.3 1 0 0.35 1 0 0.4 1 0 0.45 1 0
          0.5 1 0 0.55 1 0 0.6 1 0 0.65 1 0
          0.7 1 0 0.75 1 0 0.8 1 0 0.85 1 0
          0.9 1 0 0.95 1 0 1 1 0
        </DataArray>
      </Points>
      <Cells>
        <DataArray type="Int32" Name="connectivity" NumberOfComponents="1" format="ascii">
          0 1 3 2 1 4 5 3 4 6 7 5
          6 8 9 7 8 10 11 9 10 12 13 11
          12 14 15 13 14 16 17 15 16 18 19 17
          18 20 21 19 20 22 23 21 22 24 25 23
          24 26 27 25 26 28 29 27 28 30 31 29
          30 32 33 31 32 34 35 33 34 36 37 35
          36 38 39 37 38 40 41 39 2 3 43 42
          3 5 44 43 5 7 45 44 7 9 46 45
          9 11 47 46 11 13 48 47 13 15 49 48
          15 17 50 49 17 19 51 50 19 21 52 51
          21 23 53 52 23 25 54 53 25 27 55 54
          27 29 56 55 29 31 57 56 31 33 58 57
          33 35 59 58 35 37 60 59 37 39 61 60
          39 41 62 61
        </DataArray>
        <DataArray type="Int32" Name="offsets" NumberOfComponents="1" format="ascii">
          4 8 12 16 20 24 28 32 36 40 44 48
          52 56 60 64 68 72 76 80 84 88 92 96
          100 104 108 112 116 120 124 128 132 136 140 144
          148 152 156 160
        </DataArray>
        <DataArray type="UInt8" Name="types" NumberOfComponents="1" format="ascii">
          9 9 9 9 9 9 9 9 9 9 9 9
          9 9 9 9 9 9 9 9 9 9 9 9
          9 9 9 9 9 9 9 9 9 9 9 9
          9 9 9 9
        </DataArray>
      </Cells>
    </Piece>
  </UnstructuredGrid>
</VTKFile>
