<?xml version="1.0"?>
<VTKFile type="UnstructuredGrid" version="0.1" byte_order="LittleEndian">
  <UnstructuredGrid>
    <Piece NumberOfCells="400" NumberOfPoints="441">
      <PointData Scalars="pressure_l">
        <DataArray type="Float32" Name="pressure_l" NumberOfComponents="1" format="ascii">
          199047 194100 198740 194069 189342 189333 184609 184606 179885 179883 175164 175163
          170445 170444 165727 165726 161009 161009 156292 156292 151574 151575 146857 146857
          142139 142139 137420 137420 132700 132701 127978 127979 123252 123255 118521 118526
          113777 113789 108996 109039 103977 104356 198719 194027 189317 184598 179879 175161
          170443 165726 161009 156292 151575 146858 142140 137422 132703 127983 123262 118538
          113815 109101 104414 198714 194012 189304 184590 179874 175158 170441 165725 161008
          156292 151575 146859 142142 137425 132707 127989 123270 118552 113837 109130 104434
          198712 194005 189296 184584 179870 175155 170439 165724 161008 156292 151576 146860
          142144 137428 132711 127994 123278 118564 113852 109145 104443 198711 194002 189292
          184580 179866 175152 170437 165722 161007 156292 151577 146862 142146 137431 132715
          128000 123286 118572 113861 109153 104448 198711 194000 189289 184576 179863 175150
          170436 165721 161007 156292 151578 146863 142148 137434 132719 128005 123291 118579
          113868 109159 104451 198710 193999 189287 184574 179861 175148 170434 165721 161007
          156293 151579 146865 142151 137437 132723 128009 123296 118584 113873 109162 104453
          198710 193998 189285 184573 179860 175146 170433 165720 161006 156293 151580 146866
          142153 137439 132726 128013 123300 118588 113876 109165 104454 198710 193997 189284
          184571 179858 175145 170432 165719 161006 156293 151581 146868 142155 137442 132729
          128017 123304 118592 113879 109167 104455 198710 193996 189283 184570 179856 175144
          170431 165718 161006 156294 151581 146869 142157 137445 132732 128020 123308 118595
          113882 109169 104456 198710 193995 189281 184568 179855 175142 170430 165717 161006
          156294 151582 146871 142159 137447 132736 128024 123311 118598 113885 109171 104457
          198709 193994 189280 184566 179852 175140 170428 165716 161005 156294 151583 146872
          142161 137450 132739 128027 123315 118602 113889 109174 104459 198709 193993 189277
          184563 179849 175137 170426 165715 161004 156294 151584 146874 142164 137453 132743
          128032 123320 118607 113893 109177 104460 198708 193990 189273 184558 179845 175134
          170423 165713 161003 156294 151584 146875 142166 137457 132747 128037 123326 118613
          113898 109182 104463 198707 193986 189268 184552 179840 175129 170420 165711 161002
          156293 151585 146877 142168 137460 132752 128043 123333 118621 113907 109188 104466
          198706 193979 189258 184543 179832 175124 170416 165708 161000 156293 151585 146878
          142171 137464 132757 128049 123342 118632 113919 109199 104472 198702 193966 189242
          184530 179823 175117 170411 165705 160999 156292 151586 146879 142173 137467 132762
          128057 123352 118647 113937 109218 104484 198692 193934 189215 184514 179813 175111
          170408 165703 160998 156292 151586 146880 142175 137470 132766 128064 123363 118664
          113965 109254 104509 198647 193847 189180 184498 179805 175106 170405 165701 160997
          156292 151586 146881 142176 137472 132769 128069 123371 118680 113998 109333 104583
          198005 193781 189163 184491 179802 175105 170404 165701 160997 156292 151586 146881
          142176 137473 132770 128070 123375 118686 114014 109388 105066
        </DataArray>
        <DataArray type="Float32" Name="density_l" NumberOfComponents="1" format="ascii">
          998.259 998.257 998.259 998.257 998.255 998.255 998.253 998.253 998.251 998.251 998.249 998.249
          998.246 998.246 998.244 998.244 998.242 998.242 998.24 998.24 998.238 998.238 998.236 998.236
          998.233 998.233 998.231 998.231 998.229 998.229 998.227 998.227 998.224 998.224 998.222 998.222
          998.22 998.22 998.218 998.218 998.215 998.215 998.259 998.257 998.255 998.253 998.251 998.249
          998.246 998.244 998.242 998.24 998.238 998.236 998.233 998.231 998.229 998.227 998.224 998.222
          998.22 998.218 998.215 998.259 998.257 998.255 998.253 998.251 998.249 998.246 998.244 998.242
          998.24 998.238 998.236 998.233 998.231 998.229 998.227 998.224 998.222 998.22 998.218 998.215
          998.259 998.257 998.255 998.253 998.251 998.249 998.246 998.244 998.242 998.24 998.238 998.236
          998.233 998.231 998.229 998.227 998.224 998.222 998.22 998.218 998.215 998.259 998.257 998.255
          998.253 998.251 998.249 998.246 998.244 998.242 998.24 998.238 998.236 998.233 998.231 998.229
          998.227 998.224 998.222 998.22 998.218 998.215 998.259 998.257 998.255 998.253 998.251 998.249
          998.246 998.244 998.242 998.24 998.238 998.236 998.233 998.231 998.229 998.227 998.224 998.222
          998.22 998.218 998.215 998.259 998.257 998.255 998.253 998.251 998.249 998.246 998.244 998.242
          998.24 998.238 998.236 998.233 998.231 998.229 998.227 998.224 998.222 998.22 998.218 998.215
          998.259 998.257 998.255 998.253 998.251 998.249 998.246 998.244 998.242 998.24 998.238 998.236
          998.233 998.231 998.229 998.227 998.224 998.222 998.22 998.218 998.215 998.259 998.257 998.255
          998.253 998.251 998.249 998.246 998.244 998.242 998.24 998.238 998.236 998.233 998.231 998.229
          998.227 998.224 998.222 998.22 998.218 998.215 998.259 998.257 998.255 998.253 998.251 998.249
          998.246 998.244 998.242 998.24 998.238 998.236 998.233 998.231 998.229 998.227 998.224 998.222
          998.22 998.218 998.215 998.259 998.257 998.255 998.253 998.251 998.249 998.246 998.244 998.242
          998.24 998.238 998.236 998.233 998.231 998.229 998.227 998.224 998.222 998.22 998.218 998.215
          998.259 998.257 998.255 998.253 998.251 998.249 998.246 998.244 998.242 998.24 998.238 998.236
          998.233 998.231 998.229 998.227 998.224 998.222 998.22 998.218 998.215 998.259 998.257 998.255
          998.253 998.251 998.249 998.246 998.244 998.242 998.24 998.238 998.236 998.233 998.231 998.229
          998.227 998.224 998.222 998.22 998.218 998.215 998.259 998.257 998.255 998.253 998.251 998.249
          998.246 998.244 998.242 998.24 998.238 998.236 998.233 998.231 998.229 998.227 998.224 998.222
          998.22 998.218 998.215 998.259 998.257 998.255 998.253 998.251 998.249 998.246 998.244 998.242
          998.24 998.238 998.236 998.233 998.231 998.229 998.227 998.224 998.222 998.22 998.218 998.215
          998.259 998.257 998.255 998.253 998.251 998.249 998.246 998.244 998.242 998.24 998.238 998.236
          998.233 998.231 998.229 998.227 998.224 998.222 998.22 998.218 998.215 998.259 998.257 998.255
          998.253 998.251 998.249 998.246 998.244 998.242 998.24 998.238 998.236 998.233 998.231 998.229
          998.227 998.224 998.222 998.22 998.218 998.216 998.259 998.257 998.255 998.253 998.251 998.249
          998.246 998.244 998.242 998.24 998.238 998.236 998.233 998.231 998.229 998.227 998.224 998.222
          998.22 998.218 998.216 998.259 998.257 998.255 998.253 998.251 998.249 998.246 998.244 998.242
          998.24 998.238 998.236 998.233 998.231 998.229 998.227 998.224 998.222 998.22 998.218 998.216
          998.259 998.257 998.255 998.253 998.251 998.249 998.246 998.244 998.242 998.24 998.238 998.236
          998.233 998.231 998.229 998.227 998.224 998.222 998.22 998.218 998.216
        </DataArray>
        <DataArray type="Float32" Name="saturation_l" NumberOfComponents="1" format="ascii">
          1 1 1 1 1 1 1 1 1 1 1 1
          1 1 1 1 1 1 1 1 1 1 1 1
          1 1 1 1 1 1 1 1 1 1 1 1
          1 1 1 1 1 1 1 1 1 1 1 1
          1 1 1 1 1 1 1 1 1 1 1 1
          1 1 1 1 1 1 1 1 1 1 1 1
          1 1 1 1 1 1 1 1 1 1 1 1
          1 1 1 1 1 1 1 1 1 1 1 1
          1 1 1 1 1 1 1 1 1 1 1 1
          1 1 1 1 1 1 1 1 1 1 1 1
          1 1 1 1 1 1 1 1 1 1 1 1
          1 1 1 1 1 1 1 1 1 1 1 1
          1 1 1 1 1 1 1 1 1 1 1 1
          1 1 1 1 1 1 1 1 1 1 1 1
          1 1 1 1 1 1 1 1 1 1 1 1
          1 1 1 1 1 1 1 1 1 1 1 1
          1 1 1 1 1 1 1 1 1 1 1 1
          1 1 1 1 1 1 1 1 1 1 1 1
          1 1 1 1 1 1 1 1 1 1 1 1
          1 1 1 1 1 1 1 1 1 1 1 1
          1 1 1 1 1 1 1 1 1 1 1 1
          1 1 1 1 1 1 1 1 1 1 1 1
          1 1 1 1 1 1 1 1 1 1 1 1
          1 1 1 1 1 1 1 1 1 1 1 1
          1 1 1 1 1 1 1 1 1 1 1 1
          1 1 1 1 1 1 1 1 1 1 1 1
          1 1 1 1 1 1 1 1 1 1 1 1
          1 1 1 1 1 1 1 1 1 1 1 1
          1 1 1 1 1 1 1 1 1 1 1 1
          1 1 1 1 1 1 1 1 1 1 1 1
          1 1 1 1 1 1 1 1 1 1 1 1
          1 1 1 1 1 1 1 1 1 1 1 1
          1 1 1 1 1 1 1 1 1 1 1 1
          1 1 1 1 1 1 1 1 1 1 1 1
          1 1 1 1 1 1 1 1 1 1 1 1
          1 1 1 1 1 1 1 1 1 1 1 1
          1 1 1 1 1 1 1 1 1
        </DataArray>
        <DataArray type="Float32" Name="relativePerm_l" NumberOfComponents="1" format="ascii">
          1 1 1 1 1 1 1 1 1 1 1 1
          1 1 1 1 1 1 1 1 1 1 1 1
          1 1 1 1 1 1 1 1 1 1 1 1
          1 1 1 1 1 1 1 1 1 1 1 1
          1 1 1 1 1 1 1 1 1 1 1 1
          1 1 1 1 1 1 1 1 1 1 1 1
          1 1 1 1 1 1 1 1 1 1 1 1
          1 1 1 1 1 1 1 1 1 1 1 1
          1 1 1 1 1 1 1 1 1 1 1 1
          1 1 1 1 1 1 1 1 1 1 1 1
          1 1 1 1 1 1 1 1 1 1 1 1
          1 1 1 1 1 1 1 1 1 1 1 1
          1 1 1 1 1 1 1 1 1 1 1 1
          1 1 1 1 1 1 1 1 1 1 1 1
          1 1 1 1 1 1 1 1 1 1 1 1
          1 1 1 1 1 1 1 1 1 1 1 1
          1 1 1 1 1 1 1 1 1 1 1 1
          1 1 1 1 1 1 1 1 1 1 1 1
          1 1 1 1 1 1 1 1 1 1 1 1
          1 1 1 1 1 1 1 1 1 1 1 1
          1 1 1 1 1 1 1 1 1 1 1 1
          1 1 1 1 1 1 1 1 1 1 1 1
          1 1 1 1 1 1 1 1 1 1 1 1
          1 1 1 1 1 1 1 1 1 1 1 1
          1 1 1 1 1 1 1 1 1 1 1 1
          1 1 1 1 1 1 1 1 1 1 1 1
          1 1 1 1 1 1 1 1 1 1 1 1
          1 1 1 1 1 1 1 1 1 1 1 1
          1 1 1 1 1 1 1 1 1 1 1 1
          1 1 1 1 1 1 1 1 1 1 1 1
          1 1 1 1 1 1 1 1 1 1 1 1
          1 1 1 1 1 1 1 1 1 1 1 1
          1 1 1 1 1 1 1 1 1 1 1 1
          1 1 1 1 1 1 1 1 1 1 1 1
          1 1 1 1 1 1 1 1 1 1 1 1
          1 1 1 1 1 1 1 1 1 1 1 1
          1 1 1 1 1 1 1 1 1
        </DataArray>
        <DataArray type="Float32" Name="porosity" NumberOfComponents="1" format="ascii">
          0.4 0.4 0.4 0.4 0.4 0.4 0.4 0.4 0.4 0.4 0.4 0.4
          0.4 0.4 0.4 0.4 0.4 0.4 0.4 0.4 0.4 0.4 0.4 0.4
          0.4 0.4 0.4 0.4 0.4 0.4 0.4 0.4 0.4 0.4 0.4 0.4
          0.4 0.4 0.4 0.4 0.4 0.4 0.4 0.4 0.4 0.4 0.4 0.4
          0.4 0.4 0.4 0.4 0.4 0.4 0.4 0.4 0.4 0.4 0.4 0.4
          0.4 0.4 0.4 0.4 0.4 0.4 0.4 0.4 0.4 0.4 0.4 0.4
          0.4 0.4 0.4 0.4 0.4 0.4 0.4 0.4 0.4 0.4 0.4 0.4
          0.4 0.4 0.4 0.4 0.4 0.4 0.4 0.4 0.4 0.4 0.4 0.4
          0.4 0.4 0.4 0.4 0.4 0.4 0.4 0.4 0.4 0.4 0.4 0.4
          0.4 0.4 0.4 0.4 0.4 0.4 0.4 0.4 0.4 0.4 0.4 0.4
          0.4 0.4 0.4 0.4 0.4 0.4 0.4 0.4 0.4 0.4 0.4 0.4
          0.4 0.4 0.4 0.4 0.4 0.4 0.4 0.4 0.4 0.4 0.4 0.4
          0.4 0.4 0.4 0.4 0.4 0.4 0.4 0.4 0.4 0.4 0.4 0.4
          0.4 0.4 0.4 0.4 0.4 0.4 0.4 0.4 0.4 0.4 0.4 0.4
          0.4 0.4 0.4 0.4 0.4 0.4 0.4 0.4 0.4 0.4 0.4 0.4
          0.4 0.4 0.4 0.4 0.4 0.4 0.4 0.4 0.4 0.4 0.4 0.4
          0.4 0.4 0.4 0.4 0.4 0.4 0.4 0.4 0.4 0.4 0.4 0.4
          0.4 0.4 0.4 0.4 0.4 0.4 0.4 0.4 0.4 0.4 0.4 0.4
          0.4 0.4 0.4 0.4 0.4 0.4 0.4 0.4 0.4 0.4 0.4 0.4
          0.4 0.4 0.4 0.4 0.4 0.4 0.4 0.4 0.4 0.4 0.4 0.4
          0.4 0.4 0.4 0.4 0.4 0.4 0.4 0.4 0.4 0.4 0.4 0.4
          0.4 0.4 0.4 0.4 0.4 0.4 0.4 0.4 0.4 0.4 0.4 0.4
          0.4 0.4 0.4 0.4 0.4 0.4 0.4 0.4 0.4 0.4 0.4 0.4
          0.4 0.4 0.4 0.4 0.4 0.4 0.4 0.4 0.4 0.4 0.4 0.4
          0.4 0.4 0.4 0.4 0.4 0.4 0.4 0.4 0.4 0.4 0.4 0.4
          0.4 0.4 0.4 0.4 0.4 0.4 0.4 0.4 0.4 0.4 0.4 0.4
          0.4 0.4 0.4 0.4 0.4 0.4 0.4 0.4 0.4 0.4 0.4 0.4
          0.4 0.4 0.4 0.4 0.4 0.4 0.4 0.4 0.4 0.4 0.4 0.4
          0.4 0.4 0.4 0.4 0.4 0.4 0.4 0.4 0.4 0.4 0.4 0.4
          0.4 0.4 0.4 0.4 0.4 0.4 0.4 0.4 0.4 0.4 0.4 0.4
          0.4 0.4 0.4 0.4 0.4 0.4 0.4 0.4 0.4 0.4 0.4 0.4
          0.4 0.4 0.4 0.4 0.4 0.4 0.4 0.4 0.4 0.4 0.4 0.4
          0.4 0.4 0.4 0.4 0.4 0.4 0.4 0.4 0.4 0.4 0.4 0.4
          0.4 0.4 0.4 0.4 0.4 0.4 0.4 0.4 0.4 0.4 0.4 0.4
          0.4 0.4 0.4 0.4 0.4 0.4 0.4 0.4 0.4 0.4 0.4 0.4
          0.4 0.4 0.4 0.4 0.4 0.4 0.4 0.4 0.4 0.4 0.4 0.4
          0.4 0.4 0.4 0.4 0.4 0.4 0.4 0.4 0.4
        </DataArray>
        <DataArray type="Float32" Name="moleFrac_l^H2O" NumberOfComponents="1" format="ascii">
          0.99998 0.99998 0.99998 0.99998 0.99998 0.99998 0.99998 0.99998 0.99998 0.99998 0.99998 0.99998
          0.99998 0.99998 0.99998 0.99998 0.99998 0.99998 0.99998 0.99998 0.99998 0.99998 0.99998 0.99998
          0.99998 0.99998 0.99998 0.99998 0.99998 0.99998 0.999981 0.999981 0.999981 0.999981 0.999981 0.999981
          0.999981 0.999981 0.999981 0.999981 0.999981 0.999981 0.99998 0.99998 0.99998 0.99998 0.99998 0.99998
          0.99998 0.99998 0.99998 0.99998 0.99998 0.99998 0.99998 0.99998 0.99998 0.999981 0.999981 0.999981
          0.999981 0.999981 0.999981 0.99998 0.99998 0.99998 0.99998 0.99998 0.99998 0.99998 0.99998 0.99998
          0.99998 0.99998 0.99998 0.99998 0.99998 0.99998 0.999981 0.999981 0.999981 0.999981 0.999981 0.999981
          0.99998 0.99998 0.99998 0.99998 0.99998 0.99998 0.99998 0.99998 0.99998 0.99998 0.99998 0.99998
          0.99998 0.99998 0.99998 0.999981 0.999981 0.999981 0.999981 0.999981 0.999981 0.99998 0.99998 0.99998
          0.99998 0.99998 0.99998 0.99998 0.99998 0.99998 0.99998 0.99998 0.99998 0.99998 0.99998 0.99998
          0.999981 0.999981 0.999981 0.999981 0.999981 0.999981 0.99998 0.99998 0.99998 0.99998 0.99998 0.99998
          0.99998 0.99998 0.99998 0.99998 0.99998 0.99998 0.99998 0.99998 0.99998 0.999981 0.999981 0.999981
          0.999981 0.999981 0.999981 0.99998 0.99998 0.99998 0.99998 0.99998 0.99998 0.99998 0.99998 0.99998
          0.99998 0.99998 0.99998 0.99998 0.99998 0.99998 0.999981 0.999981 0.999981 0.999981 0.999981 0.999981
          0.99998 0.99998 0.99998 0.99998 0.99998 0.99998 0.99998 0.99998 0.99998 0.99998 0.99998 0.99998
          0.99998 0.99998 0.99998 0.999981 0.999981 0.999981 0.999981 0.999981 0.999981 0.99998 0.99998 0.99998
          0.99998 0.99998 0.99998 0.99998 0.99998 0.99998 0.99998 0.99998 0.99998 0.99998 0.99998 0.99998
          0.999981 0.999981 0.999981 0.999981 0.999981 0.999981 0.99998 0.99998 0.99998 0.99998 0.99998 0.99998
          0.99998 0.99998 0.99998 0.99998 0.99998 0.99998 0.99998 0.99998 0.99998 0.999981 0.999981 0.999981
          0.999981 0.999981 0.999981 0.99998 0.99998 0.99998 0.99998 0.99998 0.99998 0.99998 0.99998 0.99998
          0.99998 0.99998 0.99998 0.99998 0.99998 0.99998 0.999981 0.999981 0.999981 0.999981 0.999981 0.999981
          0.99998 0.99998 0.99998 0.99998 0.99998 0.99998 0.99998 0.99998 0.99998 0.99998 0.99998 0.99998
          0.99998 0.99998 0.99998 0.999981 0.999981 0.999981 0.999981 0.999981 0.999981 0.99998 0.99998 0.99998
          0.99998 0.99998 0.99998 0.99998 0.99998 0.99998 0.99998 0.99998 0.99998 0.99998 0.99998 0.99998
          0.999981 0.999981 0.999981 0.999981 0.999981 0.999981 0.99998 0.99998 0.99998 0.99998 0.99998 0.99998
          0.99998 0.99998 0.99998 0.99998 0.99998 0.99998 0.99998 0.99998 0.99998 0.999981 0.999981 0.999981
          0.999981 0.999981 0.999981 0.99998 0.99998 0.99998 0.99998 0.99998 0.99998 0.99998 0.99998 0.99998
          0.99998 0.99998 0.99998 0.99998 0.99998 0.99998 0.999981 0.999981 0.999981 0.999981 0.999981 0.999981
          0.99998 0.99998 0.99998 0.99998 0.99998 0.99998 0.99998 0.99998 0.99998 0.99998 0.99998 0.99998
          0.99998 0.99998 0.99998 0.999981 0.999981 0.999981 0.999981 0.999981 0.999981 0.99998 0.99998 0.99998
          0.99998 0.99998 0.99998 0.99998 0.99998 0.99998 0.99998 0.99998 0.99998 0.99998 0.99998 0.99998
          0.999981 0.999981 0.999981 0.999981 0.999981 0.999981 0.99998 0.99998 0.99998 0.99998 0.99998 0.99998
          0.99998 0.99998 0.99998 0.99998 0.99998 0.99998 0.99998 0.99998 0.99998 0.999981 0.999981 0.999981
          0.999981 0.999981 0.999981 0.99998 0.99998 0.99998 0.99998 0.99998 0.99998 0.99998 0.99998 0.99998
          0.99998 0.99998 0.99998 0.99998 0.99998 0.99998 0.999981 0.999981 0.999981 0.999981 0.999981 0.999981
          0.99998 0.99998 0.99998 0.99998 0.99998 0.99998 0.99998 0.99998 0.99998 0.99998 0.99998 0.99998
          0.99998 0.99998 0.99998 0.999981 0.999981 0.999981 0.999981 0.999981 0.999981
        </DataArray>
        <DataArray type="Float32" Name="moleFrac_l^N2" NumberOfComponents="1" format="ascii">
          2e-05 2e-05 2e-05 2e-05 1.99997e-05 1.99997e-05 1.9999e-05 1.99989e-05 1.99972e-05 1.99969e-05 1.99933e-05 1.99928e-05
          1.99862e-05 1.99853e-05 1.99745e-05 1.9973e-05 1.99562e-05 1.99541e-05 1.99296e-05 1.99266e-05 1.98927e-05 1.98886e-05 1.98433e-05 1.98381e-05
          1.97797e-05 1.97731e-05 1.97001e-05 1.96919e-05 1.96027e-05 1.95929e-05 1.94865e-05 1.94748e-05 1.93503e-05 1.93368e-05 1.91934e-05 1.9178e-05
          1.90158e-05 1.89983e-05 1.88176e-05 1.87978e-05 1.87157e-05 1.86916e-05 2e-05 2e-05 1.99997e-05 1.99989e-05 1.99968e-05 1.99927e-05
          1.99852e-05 1.99729e-05 1.99539e-05 1.99263e-05 1.98882e-05 1.98376e-05 1.97725e-05 1.96912e-05 1.9592e-05 1.94738e-05 1.93355e-05 1.91764e-05
          1.8996e-05 1.87938e-05 1.86866e-05 2e-05 2e-05 1.99997e-05 1.99989e-05 1.99969e-05 1.99927e-05 1.99852e-05 1.99729e-05 1.99539e-05
          1.99263e-05 1.98883e-05 1.98376e-05 1.97725e-05 1.96911e-05 1.9592e-05 1.94737e-05 1.93353e-05 1.9176e-05 1.89951e-05 1.87924e-05 1.86854e-05
          2e-05 2e-05 1.99997e-05 1.99989e-05 1.99969e-05 1.99927e-05 1.99852e-05 1.99729e-05 1.99539e-05 1.99264e-05 1.98883e-05 1.98376e-05
          1.97725e-05 1.96911e-05 1.95919e-05 1.94736e-05 1.93351e-05 1.91756e-05 1.89946e-05 1.87918e-05 1.86848e-05 2e-05 2e-05 1.99997e-05
          1.99989e-05 1.99969e-05 1.99927e-05 1.99853e-05 1.99729e-05 1.99539e-05 1.99264e-05 1.98882e-05 1.98376e-05 1.97724e-05 1.9691e-05 1.95918e-05
          1.94734e-05 1.93348e-05 1.91752e-05 1.89942e-05 1.87914e-05 1.86845e-05 2e-05 2e-05 1.99997e-05 1.99989e-05 1.99969e-05 1.99927e-05
          1.99853e-05 1.99729e-05 1.99539e-05 1.99264e-05 1.98882e-05 1.98376e-05 1.97724e-05 1.9691e-05 1.95917e-05 1.94733e-05 1.93346e-05 1.9175e-05
          1.89939e-05 1.87911e-05 1.86843e-05 2e-05 2e-05 1.99997e-05 1.99989e-05 1.99969e-05 1.99927e-05 1.99853e-05 1.99729e-05 1.99539e-05
          1.99264e-05 1.98882e-05 1.98375e-05 1.97724e-05 1.96909e-05 1.95916e-05 1.94732e-05 1.93345e-05 1.91748e-05 1.89937e-05 1.87909e-05 1.86842e-05
          2e-05 2e-05 1.99997e-05 1.99989e-05 1.99969e-05 1.99927e-05 1.99853e-05 1.99729e-05 1.99539e-05 1.99264e-05 1.98882e-05 1.98375e-05
          1.97723e-05 1.96909e-05 1.95916e-05 1.94731e-05 1.93344e-05 1.91747e-05 1.89935e-05 1.87908e-05 1.86841e-05 2e-05 2e-05 1.99997e-05
          1.99989e-05 1.99969e-05 1.99927e-05 1.99853e-05 1.99729e-05 1.99539e-05 1.99264e-05 1.98882e-05 1.98375e-05 1.97723e-05 1.96908e-05 1.95915e-05
          1.9473e-05 1.93342e-05 1.91745e-05 1.89934e-05 1.87907e-05 1.8684e-05 2e-05 2e-05 1.99997e-05 1.99989e-05 1.99969e-05 1.99927e-05
          1.99853e-05 1.99729e-05 1.99539e-05 1.99263e-05 1.98882e-05 1.98375e-05 1.97723e-05 1.96908e-05 1.95914e-05 1.94729e-05 1.93341e-05 1.91744e-05
          1.89933e-05 1.87906e-05 1.86839e-05 2e-05 2e-05 1.99997e-05 1.99989e-05 1.99969e-05 1.99927e-05 1.99853e-05 1.99729e-05 1.99539e-05
          1.99263e-05 1.98882e-05 1.98375e-05 1.97722e-05 1.96907e-05 1.95913e-05 1.94728e-05 1.9334e-05 1.91743e-05 1.89932e-05 1.87905e-05 1.86838e-05
          2e-05 2e-05 1.99997e-05 1.99989e-05 1.99969e-05 1.99928e-05 1.99853e-05 1.99729e-05 1.99539e-05 1.99263e-05 1.98882e-05 1.98375e-05
          1.97722e-05 1.96907e-05 1.95912e-05 1.94727e-05 1.93339e-05 1.91741e-05 1.8993e-05 1.87904e-05 1.86837e-05 2e-05 2e-05 1.99997e-05
          1.99989e-05 1.99969e-05 1.99928e-05 1.99853e-05 1.99729e-05 1.99539e-05 1.99264e-05 1.98882e-05 1.98374e-05 1.97722e-05 1.96906e-05 1.95912e-05
          1.94725e-05 1.93337e-05 1.9174e-05 1.89928e-05 1.87903e-05 1.86836e-05 2e-05 2e-05 1.99997e-05 1.99989e-05 1.99969e-05 1.99928e-05
          1.99853e-05 1.99729e-05 1.99539e-05 1.99264e-05 1.98882e-05 1.98374e-05 1.97721e-05 1.96905e-05 1.95911e-05 1.94724e-05 1.93335e-05 1.91737e-05
          1.89926e-05 1.87901e-05 1.86835e-05 2e-05 2e-05 1.99997e-05 1.99989e-05 1.99969e-05 1.99928e-05 1.99853e-05 1.99729e-05 1.99539e-05
          1.99264e-05 1.98882e-05 1.98374e-05 1.97721e-05 1.96905e-05 1.9591e-05 1.94722e-05 1.93333e-05 1.91734e-05 1.89923e-05 1.87898e-05 1.86832e-05
          2e-05 2e-05 1.99997e-05 1.99989e-05 1.99969e-05 1.99928e-05 1.99853e-05 1.9973e-05 1.9954e-05 1.99264e-05 1.98882e-05 1.98374e-05
          1.97721e-05 1.96904e-05 1.95909e-05 1.94721e-05 1.9333e-05 1.91731e-05 1.89918e-05 1.87893e-05 1.86828e-05 2e-05 2e-05 1.99997e-05
          1.99989e-05 1.99969e-05 1.99928e-05 1.99853e-05 1.9973e-05 1.9954e-05 1.99264e-05 1.98882e-05 1.98374e-05 1.97721e-05 1.96904e-05 1.95908e-05
          1.94719e-05 1.93327e-05 1.91726e-05 1.8991e-05 1.87884e-05 1.86821e-05 2e-05 2e-05 1.99997e-05 1.99989e-05 1.99969e-05 1.99928e-05
          1.99853e-05 1.9973e-05 1.9954e-05 1.99264e-05 1.98882e-05 1.98374e-05 1.97721e-05 1.96904e-05 1.95907e-05 1.94718e-05 1.93325e-05 1.9172e-05
          1.89899e-05 1.87865e-05 1.86803e-05 2e-05 2e-05 1.99997e-05 1.99989e-05 1.99969e-05 1.99927e-05 1.99852e-05 1.99728e-05 1.99537e-05
          1.9926e-05 1.98877e-05 1.98367e-05 1.97712e-05 1.96893e-05 1.95895e-05 1.94703e-05 1.93307e-05 1.91697e-05 1.89865e-05 1.87798e-05 1.86701e-05
          2e-05 1.99999e-05 1.99996e-05 1.99986e-05 1.99962e-05 1.99914e-05 1.99831e-05 1.99694e-05 1.99488e-05 1.99191e-05 1.98784e-05 1.98247e-05
          1.97561e-05 1.96708e-05 1.95673e-05 1.94441e-05 1.93004e-05 1.91352e-05 1.89476e-05 1.87362e-05 1.86195e-05
        </DataArray>
        <DataArray type="Float32" Name="massFrac_l^H2O" NumberOfComponents="1" format="ascii">
          0.999969 0.999969 0.999969 0.999969 0.999969 0.999969 0.999969 0.999969 0.999969 0.999969 0.999969 0.999969
          0.999969 0.999969 0.999969 0.999969 0.999969 0.999969 0.999969 0.999969 0.999969 0.999969 0.999969 0.999969
          0.999969 0.999969 0.999969 0.999969 0.99997 0.99997 0.99997 0.99997 0.99997 0.99997 0.99997 0.99997
          0.99997 0.99997 0.999971 0.999971 0.999971 0.999971 0.999969 0.999969 0.999969 0.999969 0.999969 0.999969
          0.999969 0.999969 0.999969 0.999969 0.999969 0.999969 0.999969 0.999969 0.99997 0.99997 0.99997 0.99997
          0.99997 0.999971 0.999971 0.999969 0.999969 0.999969 0.999969 0.999969 0.999969 0.999969 0.999969 0.999969
          0.999969 0.999969 0.999969 0.999969 0.999969 0.99997 0.99997 0.99997 0.99997 0.99997 0.999971 0.999971
          0.999969 0.999969 0.999969 0.999969 0.999969 0.999969 0.999969 0.999969 0.999969 0.999969 0.999969 0.999969
          0.999969 0.999969 0.99997 0.99997 0.99997 0.99997 0.99997 0.999971 0.999971 0.999969 0.999969 0.999969
          0.999969 0.999969 0.999969 0.999969 0.999969 0.999969 0.999969 0.999969 0.999969 0.999969 0.999969 0.99997
          0.99997 0.99997 0.99997 0.99997 0.999971 0.999971 0.999969 0.999969 0.999969 0.999969 0.999969 0.999969
          0.999969 0.999969 0.999969 0.999969 0.999969 0.999969 0.999969 0.999969 0.99997 0.99997 0.99997 0.99997
          0.99997 0.999971 0.999971 0.999969 0.999969 0.999969 0.999969 0.999969 0.999969 0.999969 0.999969 0.999969
          0.999969 0.999969 0.999969 0.999969 0.999969 0.99997 0.99997 0.99997 0.99997 0.99997 0.999971 0.999971
          0.999969 0.999969 0.999969 0.999969 0.999969 0.999969 0.999969 0.999969 0.999969 0.999969 0.999969 0.999969
          0.999969 0.999969 0.99997 0.99997 0.99997 0.99997 0.99997 0.999971 0.999971 0.999969 0.999969 0.999969
          0.999969 0.999969 0.999969 0.999969 0.999969 0.999969 0.999969 0.999969 0.999969 0.999969 0.999969 0.99997
          0.99997 0.99997 0.99997 0.99997 0.999971 0.999971 0.999969 0.999969 0.999969 0.999969 0.999969 0.999969
          0.999969 0.999969 0.999969 0.999969 0.999969 0.999969 0.999969 0.999969 0.99997 0.99997 0.99997 0.99997
          0.99997 0.999971 0.999971 0.999969 0.999969 0.999969 0.999969 0.999969 0.999969 0.999969 0.999969 0.999969
          0.999969 0.999969 0.999969 0.999969 0.999969 0.99997 0.99997 0.99997 0.99997 0.99997 0.999971 0.999971
          0.999969 0.999969 0.999969 0.999969 0.999969 0.999969 0.999969 0.999969 0.999969 0.999969 0.999969 0.999969
          0.999969 0.999969 0.99997 0.99997 0.99997 0.99997 0.99997 0.999971 0.999971 0.999969 0.999969 0.999969
          0.999969 0.999969 0.999969 0.999969 0.999969 0.999969 0.999969 0.999969 0.999969 0.999969 0.999969 0.99997
          0.99997 0.99997 0.99997 0.99997 0.999971 0.999971 0.999969 0.999969 0.999969 0.999969 0.999969 0.999969
          0.999969 0.999969 0.999969 0.999969 0.999969 0.999969 0.999969 0.999969 0.99997 0.99997 0.99997 0.99997
          0.99997 0.999971 0.999971 0.999969 0.999969 0.999969 0.999969 0.999969 0.999969 0.999969 0.999969 0.999969
          0.999969 0.999969 0.999969 0.999969 0.999969 0.99997 0.99997 0.99997 0.99997 0.99997 0.999971 0.999971
          0.999969 0.999969 0.999969 0.999969 0.999969 0.999969 0.999969 0.999969 0.999969 0.999969 0.999969 0.999969
          0.999969 0.999969 0.99997 0.99997 0.99997 0.99997 0.99997 0.999971 0.999971 0.999969 0.999969 0.999969
          0.999969 0.999969 0.999969 0.999969 0.999969 0.999969 0.999969 0.999969 0.999969 0.999969 0.999969 0.99997
          0.99997 0.99997 0.99997 0.99997 0.999971 0.999971 0.999969 0.999969 0.999969 0.999969 0.999969 0.999969
          0.999969 0.999969 0.999969 0.999969 0.999969 0.999969 0.999969 0.999969 0.99997 0.99997 0.99997 0.99997
          0.99997 0.999971 0.999971 0.999969 0.999969 0.999969 0.999969 0.999969 0.999969 0.999969 0.999969 0.999969
          0.999969 0.999969 0.999969 0.999969 0.999969 0.99997 0.99997 0.99997 0.99997 0.99997 0.999971 0.999971
          0.999969 0.999969 0.999969 0.999969 0.999969 0.999969 0.999969 0.999969 0.999969 0.999969 0.999969 0.999969
          0.999969 0.999969 0.99997 0.99997 0.99997 0.99997 0.999971 0.999971 0.999971
        </DataArray>
        <DataArray type="Float32" Name="massFrac_l^N2" NumberOfComponents="1" format="ascii">
          3.10994e-05 3.10994e-05 3.10994e-05 3.10994e-05 3.1099e-05 3.1099e-05 3.10979e-05 3.10977e-05 3.1095e-05 3.10946e-05 3.1089e-05 3.10882e-05
          3.1078e-05 3.10766e-05 3.10597e-05 3.10575e-05 3.10314e-05 3.1028e-05 3.099e-05 3.09853e-05 3.09325e-05 3.09262e-05 3.08558e-05 3.08476e-05
          3.07569e-05 3.07466e-05 3.0633e-05 3.06203e-05 3.04817e-05 3.04664e-05 3.03009e-05 3.02828e-05 3.00891e-05 3.00681e-05 2.98452e-05 2.98212e-05
          2.9569e-05 2.95418e-05 2.92608e-05 2.923e-05 2.91023e-05 2.9065e-05 3.10994e-05 3.10993e-05 3.10989e-05 3.10977e-05 3.10945e-05 3.10881e-05
          3.10765e-05 3.10573e-05 3.10277e-05 3.09849e-05 3.09257e-05 3.08469e-05 3.07457e-05 3.06192e-05 3.04651e-05 3.02812e-05 3.00662e-05 2.98188e-05
          2.95382e-05 2.92239e-05 2.90572e-05 3.10994e-05 3.10994e-05 3.10989e-05 3.10977e-05 3.10945e-05 3.10881e-05 3.10765e-05 3.10573e-05 3.10277e-05
          3.09849e-05 3.09257e-05 3.08469e-05 3.07457e-05 3.06192e-05 3.0465e-05 3.02811e-05 3.00658e-05 2.98181e-05 2.95369e-05 2.92217e-05 2.90553e-05
          3.10994e-05 3.10994e-05 3.1099e-05 3.10977e-05 3.10945e-05 3.10881e-05 3.10765e-05 3.10573e-05 3.10277e-05 3.09849e-05 3.09257e-05 3.08469e-05
          3.07456e-05 3.06191e-05 3.04649e-05 3.02809e-05 3.00655e-05 2.98175e-05 2.9536e-05 2.92207e-05 2.90544e-05 3.10994e-05 3.10994e-05 3.1099e-05
          3.10977e-05 3.10945e-05 3.10881e-05 3.10765e-05 3.10573e-05 3.10278e-05 3.09849e-05 3.09257e-05 3.08469e-05 3.07456e-05 3.0619e-05 3.04647e-05
          3.02806e-05 3.00651e-05 2.9817e-05 2.95354e-05 2.922e-05 2.90539e-05 3.10994e-05 3.10994e-05 3.1099e-05 3.10977e-05 3.10945e-05 3.10881e-05
          3.10765e-05 3.10573e-05 3.10278e-05 3.09849e-05 3.09257e-05 3.08469e-05 3.07455e-05 3.06189e-05 3.04646e-05 3.02804e-05 3.00648e-05 2.98166e-05
          2.9535e-05 2.92197e-05 2.90536e-05 3.10994e-05 3.10994e-05 3.1099e-05 3.10977e-05 3.10946e-05 3.10881e-05 3.10765e-05 3.10573e-05 3.10278e-05
          3.09849e-05 3.09256e-05 3.08468e-05 3.07455e-05 3.06188e-05 3.04644e-05 3.02802e-05 3.00646e-05 2.98163e-05 2.95347e-05 2.92194e-05 2.90533e-05
          3.10994e-05 3.10994e-05 3.1099e-05 3.10977e-05 3.10946e-05 3.10881e-05 3.10765e-05 3.10573e-05 3.10278e-05 3.09849e-05 3.09256e-05 3.08468e-05
          3.07454e-05 3.06187e-05 3.04643e-05 3.02801e-05 3.00644e-05 2.98161e-05 2.95344e-05 2.92192e-05 2.90532e-05 3.10994e-05 3.10994e-05 3.1099e-05
          3.10977e-05 3.10946e-05 3.10881e-05 3.10765e-05 3.10573e-05 3.10278e-05 3.09849e-05 3.09256e-05 3.08468e-05 3.07454e-05 3.06187e-05 3.04642e-05
          3.02799e-05 3.00642e-05 2.98159e-05 2.95342e-05 2.9219e-05 2.90531e-05 3.10994e-05 3.10994e-05 3.1099e-05 3.10977e-05 3.10946e-05 3.10881e-05
          3.10765e-05 3.10573e-05 3.10278e-05 3.09849e-05 3.09256e-05 3.08467e-05 3.07453e-05 3.06186e-05 3.04641e-05 3.02798e-05 3.0064e-05 2.98157e-05
          2.9534e-05 2.92189e-05 2.9053e-05 3.10994e-05 3.10994e-05 3.1099e-05 3.10977e-05 3.10946e-05 3.10882e-05 3.10765e-05 3.10573e-05 3.10278e-05