<?xml version="1.0"?>
<VTKFile type="PolyData" version="0.1" byte_order="LittleEndian">
  <PolyData>
    <Piece NumberOfLines="250" NumberOfPoints="251">
      <PointData Scalars="pressure_w">
        <DataArray type="Float32" Name="pressure_w" NumberOfComponents="1" format="ascii">
          262821 262797 262742 262667 262577 262473 262358 262234 262100 261957 261806 261648
          261482 261309 261129 260943 260751 260552 260347 260136 259920 259698 259470 259237
          258999 258755 258506 258252 257993 257729 257460 257187 256908 256625 256337 256044
          255747 255445 255139 254828 254513 254194 253870 253541 253209 252872 252531 252186
          251836 251482 251124 250762 250396 250026 249652 249274 248892 248505 248115 247721
          247323 246920 246514 246105 245691 245273 244851 244426 243997 243564 243127 242686
          242242 241793 241341 240885 240426 239962 239495 239024 238550 238072 237590 237104
          236615 236121 235625 235124 234620 234112 233601 233085 232566 232044 231518 230988
          230454 229917 229376 228832 228284 227732 227177 226618 226055 225489 224919 224345
          223768 223187 222602 222014 221422 220827 220227 219625 219018 218408 217794 217177
          216556 215931 215303 214670 214035 213395 212752 212105 211455 210800 210143 209481
          208816 208146 207474 206797 206117 205433 204745 204054 203358 202659 201956 201250
          200539 199825 199107 198385 197660 196930 196197 195459 194718 193973 193224 192472
          191715 190954 190190 189421 188649 187872 187092 186308 185519 184727 183930 183130
          182325 181517 180704 179887 179066 178241 177412 176578 175740 174899 174052 173202
          172347 171489 170625 169758 168886 168010 167129 166244 165354 164460 163562 162659
          161751 160839 159923 159001 158075 157145 156210 155270 154325 153375 152421 151462
          150498 149529 148555 147576 146592 145603 144609 143610 142605 141596 140581 139561
          138535 137504 136468 135426 134379 133326 132267 131203 130133 129057 127976 126888
          125795 124695 123590 122478 121360 120235 119105 117967 116824 115673 114516 113353
          112182 111004 109819 108628 107428 106222 105008 103786 102558 101328 100167
        </DataArray>
        <DataArray type="Float32" Name="pressure_n" NumberOfComponents="1" format="ascii">
          265328 265241 265143 265034 264917 264791 264657 264515 264367 264211 264048 263878
          263702 263520 263332 263138 262938 262732 262521 262304 262081 261854 261621 261382
          261139 260891 260637 260379 260116 259848 259576 259298 259016 258729 258438 258142
          257842 257537 257228 256915 256597 256274 255948 255617 255282 254943 254599 254252
          253900 253544 253184 252820 252452 252080 251704 251324 250940 250551 250159 249763
          249364 248960 248552 248141 247725 247306 246883 246456 246026 245591 245153 244711
          244265 243815 243362 242905 242444 241979 241511 241039 240563 240084 239601 239114
          238624 238129 237632 237130 236625 236116 235604 235087 234568 234044 233517 232986
          232452 231914 231372 230827 230278 229725 229169 228609 228046 227479 226908 226334
          225756 225174 224589 224000 223407 222811 222211 221608 221001 220390 219776 219158
          218536 217911 217282 216649 216013 215373 214729 214082 213431 212776 212118 211455
          210790 210120 209447 208770 208089 207405 206717 206025 205329 204630 203926 203219
          202509 201794 201076 200353 199627 198898 198164 197426 196685 195940 195191 194438
          193681 192920 192155 191386 190614 189837 189056 188272 187483 186691 185894 185093
          184289 183480 182667 181850 181029 180204 179374 178541 177703 176861 176015 175164
          174310 173451 172588 171720 170848 169972 169091 168206 167316 166423 165524 164621
          163714 162802 161885 160964 160038 159108 158173 157233 156288 155339 154385 153426
          152462 151493 150519 149541 148557 147568 146574 145575 144571 143562 142547 141528
          140502 139472 138436 137395 136348 135295 134237 133173 132104 131028 129947 128860
          127767 126668 125563 124452 123335 122211 121081 119944 118801 117651 116495 115332
          114162 112985 111801 110610 109412 108206 106993 105772 104543 103293 101879
        </DataArray>
        <DataArray type="Float32" Name="density_w" NumberOfComponents="1" format="ascii">
          1000 1000 1000 1000 1000 1000 1000 1000 1000 1000 1000 1000
          1000 1000 1000 1000 1000 1000 1000 1000 1000 1000 1000 1000
          1000 1000 1000 1000 1000 1000 1000 1000 1000 1000 1000 1000
          1000 1000 1000 1000 1000 1000 1000 1000 1000 1000 1000 1000
          1000 1000 1000 1000 1000 1000 1000 1000 1000 1000 1000 1000
          1000 1000 1000 1000 1000 1000 1000 1000 1000 1000 1000 1000
          1000 1000 1000 1000 1000 1000 1000 1000 1000 1000 1000 1000
          1000 1000 1000 1000 1000 1000 1000 1000 1000 1000 1000 1000
          1000 1000 1000 1000 1000 1000 1000 1000 1000 1000 1000 1000
          1000 1000 1000 1000 1000 1000 1000 1000 1000 1000 1000 1000
          1000 1000 1000 1000 1000 1000 1000 1000 1000 1000 1000 1000
          1000 1000 1000 1000 1000 1000 1000 1000 1000 1000 1000 1000
          1000 1000 1000 1000 1000 1000 1000 1000 1000 1000 1000 1000
          1000 1000 1000 1000 1000 1000 1000 1000 1000 1000 1000 1000
          1000 1000 1000 1000 1000 1000 1000 1000 1000 1000 1000 1000
          1000 1000 1000 1000 1000 1000 1000 1000 1000 1000 1000 1000
          1000 1000 1000 1000 1000 1000 1000 1000 1000 1000 1000 1000
          1000 1000 1000 1000 1000 1000 1000 1000 1000 1000 1000 1000
          1000 1000 1000 1000 1000 1000 1000 1000 1000 1000 1000 1000
          1000 1000 1000 1000 1000 1000 1000 1000 1000 1000 1000 1000
          1000 1000 1000 1000 1000 1000 1000 1000 1000 1000 1000
        </DataArray>
        <DataArray type="Float32" Name="density_n" NumberOfComponents="1" format="ascii">
          3.0831 3.08209 3.08095 3.07969 3.07832 3.07686 3.0753 3.07366 3.07193 3.07012 3.06822 3.06626
          3.06421 3.0621 3.05991 3.05765 3.05533 3.05294 3.05048 3.04796 3.04538 3.04273 3.04002 3.03725
          3.03443 3.03154 3.0286 3.0256 3.02254 3.01943 3.01626 3.01303 3.00976 3.00643 3.00304 2.9996
          2.99611 2.99257 2.98898 2.98534 2.98164 2.9779 2.9741 2.97026 2.96637 2.96242 2.95843 2.95439
          2.95031 2.94617 2.94199 2.93776 2.93348 2.92916 2.92479 2.92037 2.91591 2.9114 2.90684 2.90224
          2.8976 2.8929 2.88817 2.88339 2.87856 2.87369 2.86877 2.86381 2.85881 2.85376 2.84867 2.84353
          2.83835 2.83312 2.82786 2.82254 2.81719 2.81179 2.80635 2.80086 2.79534 2.78977 2.78415 2.7785
          2.7728 2.76705 2.76127 2.75544 2.74957 2.74366 2.7377 2.73171 2.72567 2.71958 2.71346 2.70729
          2.70108 2.69483 2.68854 2.6822 2.67582 2.6694 2.66294 2.65643 2.64988 2.64329 2.63666 2.62999
          2.62327 2.61651 2.60971 2.60287 2.59599 2.58906 2.58209 2.57508 2.56802 2.56093 2.55379 2.5466
          2.53938 2.53211 2.52481 2.51745 2.51006 2.50262 2.49514 2.48762 2.48006 2.47245 2.4648 2.4571
          2.44937 2.44159 2.43376 2.4259 2.41799 2.41004 2.40204 2.394 2.38592 2.37779 2.36962 2.3614
          2.35314 2.34484 2.33649 2.3281 2.31966 2.31118 2.30266 2.29409 2.28547 2.27681 2.26811 2.25936
          2.25056 2.24172 2.23283 2.2239 2.21492 2.2059 2.19683 2.18771 2.17855 2.16934 2.16008 2.15078
          2.14143 2.13203 2.12258 2.11309 2.10355 2.09396 2.08432 2.07464 2.0649 2.05512 2.04529 2.0354
          2.02547 2.01549 2.00546 1.99538 1.98525 1.97506 1.96483 1.95455 1.94421 1.93382 1.92338 1.91289
          1.90235 1.89175 1.8811 1.8704 1.85964 1.84883 1.83796 1.82704 1.81606 1.80503 1.79394 1.7828
          1.7716 1.76034 1.74903 1.73766 1.72623 1.71474 1.70319 1.69158 1.67991 1.66818 1.6564 1.64455
          1.63263 1.62066 1.60862 1.59652 1.58435 1.57212 1.55983 1.54747 1.53504 1.52255 1.50998 1.49735
          1.48465 1.47188 1.45904 1.44613 1.43314 1.42008 1.40695 1.39375 1.38046 1.36711 1.35367 1.34015
          1.32656 1.31288 1.29913 1.28529 1.27136 1.25735 1.24326 1.22907 1.21478 1.20026 1.18383
        </DataArray>
        <DataArray type="Float32" Name="saturation_w" NumberOfComponents="1" format="ascii">
          0.346954 0.387208 0.416886 0.440459 0.459985 0.476614 0.49106 0.503799 0.515169 0.525416 0.534725 0.54324
          0.551075 0.558322 0.565054 0.571333 0.57721 0.582729 0.587926 0.592833 0.597478 0.601884 0.606071 0.610058
          0.613862 0.617495 0.620972 0.624303 0.627499 0.630569 0.633521 0.636362 0.639101 0.641742 0.644292 0.646756
          0.649139 0.651444 0.653677 0.655841 0.65794 0.659976 0.661953 0.663874 0.665741 0.667557 0.669323 0.671043
          0.672717 0.674349 0.675939 0.677489 0.679002 0.680478 0.681919 0.683325 0.684699 0.686042 0.687354 0.688637
          0.689891 0.691118 0.692319 0.693494 0.694644 0.69577 0.696873 0.697953 0.699011 0.700048 0.701064 0.70206
          0.703037 0.703994 0.704934 0.705855 0.706758 0.707645 0.708514 0.709368 0.710206 0.711028 0.711835 0.712628
          0.713406 0.71417 0.714921 0.715657 0.716381 0.717092 0.71779 0.718476 0.71915 0.719812 0.720463 0.721102
          0.72173 0.722347 0.722953 0.723548 0.724134 0.724709 0.725274 0.725829 0.726375 0.726911 0.727437 0.727955
          0.728463 0.728963 0.729453 0.729936 0.730409 0.730874 0.731331 0.731779 0.73222 0.732653 0.733077 0.733494
          0.733903 0.734305 0.734699 0.735086 0.735465 0.735837 0.736202 0.73656 0.736911 0.737255 0.737592 0.737922
          0.738246 0.738562 0.738873 0.739176 0.739473 0.739763 0.740047 0.740325 0.740596 0.740861 0.74112 0.741372
          0.741618 0.741858 0.742092 0.74232 0.742542 0.742757 0.742967 0.743171 0.743368 0.74356 0.743745 0.743925
          0.744099 0.744267 0.744429 0.744585 0.744735 0.744879 0.745018 0.74515 0.745277 0.745397 0.745512 0.745621
          0.745724 0.745821 0.745912 0.745997 0.746076 0.74615 0.746217 0.746278 0.746333 0.746382 0.746425 0.746462
          0.746492 0.746517 0.746535 0.746547 0.746552 0.746552 0.746544 0.746531 0.746511 0.746484 0.746451 0.746411
          0.746364 0.74631 0.74625 0.746182 0.746108 0.746027 0.745938 0.745842 0.745739 0.745628 0.74551 0.745384
          0.74525 0.745109 0.74496 0.744802 0.744637 0.744463 0.74428 0.744089 0.74389 0.743681 0.743464 0.743237
          0.743001 0.742755 0.7425 0.742235 0.741959 0.741674 0.741378 0.741071 0.740753 0.740425 0.740084 0.739732
          0.739368 0.738992 0.738603 0.738202 0.737787 0.737359 0.736917 0.73646 0.73599 0.735503 0.735002 0.734485
          0.733951 0.733401 0.732833 0.732247 0.731643 0.73102 0.730388 0.729846 0.730521 0.744981 0.887171
        </DataArray>
        <DataArray type="Float32" Name="saturation_n" NumberOfComponents="1" format="ascii">
          0.653046 0.612792 0.583114 0.559541 0.540015 0.523386 0.50894 0.496201 0.484831 0.474584 0.465275 0.45676
          0.448925 0.441678 0.434946 0.428667 0.42279 0.417271 0.412074 0.407167 0.402522 0.398116 0.393929 0.389942
          0.386138 0.382505 0.379028 0.375697 0.372501 0.369431 0.366479 0.363638 0.360899 0.358258 0.355708 0.353244
          0.350861 0.348556 0.346323 0.344159 0.34206 0.340024 0.338047 0.336126 0.334259 0.332444 0.330677 0.328957
          0.327283 0.325651 0.324061 0.322511 0.320998 0.319522 0.318081 0.316675 0.315301 0.313958 0.312646 0.311363
          0.310109 0.308882 0.307681 0.306506 0.305356 0.30423 0.303127 0.302047 0.300989 0.299952 0.298936 0.29794
          0.296963 0.296006 0.295066 0.294145 0.293242 0.292355 0.291486 0.290632 0.289794 0.288972 0.288165 0.287372
          0.286594 0.28583 0.28508 0.284343 0.283619 0.282908 0.28221 0.281524 0.28085 0.280188 0.279537 0.278898
          0.27827 0.277653 0.277047 0.276452 0.275866 0.275291 0.274726 0.274171 0.273625 0.273089 0.272563 0.272045
          0.271537 0.271037 0.270547 0.270065 0.269591 0.269126 0.268669 0.268221 0.26778 0.267347 0.266923 0.266506
          0.266097 0.265695 0.265301 0.264914 0.264535 0.264163 0.263798 0.26344 0.263089 0.262745 0.262408 0.262078
          0.261754 0.261438 0.261127 0.260824 0.260527 0.260237 0.259953 0.259675 0.259404 0.259139 0.25888 0.258628
          0.258382 0.258142 0.257908 0.25768 0.257458 0.257243 0.257033 0.256829 0.256632 0.25644 0.256255 0.256075
          0.255901 0.255733 0.255571 0.255415 0.255265 0.255121 0.254982 0.25485 0.254723 0.254603 0.254488 0.254379
          0.254276 0.254179 0.254088 0.254003 0.253924 0.25385 0.253783 0.253722 0.253667 0.253618 0.253575 0.253538
          0.253508 0.253483 0.253465 0.253453 0.253448 0.253448 0.253456 0.253469 0.253489 0.253516 0.253549 0.253589
          0.253636 0.25369 0.25375 0.253818 0.253892 0.253973 0.254062 0.254158 0.254261 0.254372 0.25449 0.254616
          0.25475 0.254891 0.25504 0.255198 0.255363 0.255537 0.25572 0.255911 0.25611 0.256319 0.256536 0.256763
          0.256999 0.257245 0.2575 0.257765 0.258041 0.258326 0.258622 0.258929 0.259247 0.259575 0.259916 0.260268
          0.260632 0.261008 0.261397 0.261798 0.262213 0.262641 0.263083 0.26354 0.26401 0.264496 0.264998 0.265515
          0.266049 0.266599 0.267167 0.267753 0.268357 0.26898 0.269612 0.270154 0.269479 0.255019 0.112829
        </DataArray>
        <DataArray type="Float32" Name="relativePerm_w" NumberOfComponents="1" format="ascii">
          0.0394739 0.0541591 0.067049 0.0786391 0.0892023 0.0989192 0.107921 0.116306 0.124156 0.131532 0.138488 0.145068
          0.151309 0.157242 0.162897 0.168296 0.17346 0.178409 0.183158 0.187722 0.192114 0.196345 0.200427 0.204369
          0.208179 0.211865 0.215434 0.218894 0.222249 0.225506 0.22867 0.231745 0.234735 0.237646 0.240479 0.24324
          0.245931 0.248555 0.251116 0.253615 0.256055 0.258439 0.260769 0.263046 0.265273 0.267452 0.269584 0.271672
          0.273715 0.275717 0.277678 0.2796 0.281484 0.283331 0.285143 0.28692 0.288663 0.290373 0.292052 0.293701
          0.295319 0.296908 0.298469 0.300002 0.301508 0.302988 0.304442 0.305872 0.307277 0.308659 0.310017 0.311353
          0.312666 0.313958 0.315229 0.316479 0.317709 0.318918 0.320109 0.32128 0.322433 0.323567 0.324684 0.325782
          0.326864 0.327928 0.328976 0.330007 0.331023 0.332022 0.333006 0.333975 0.334928 0.335867 0.336791 0.337701
          0.338597 0.339479 0.340347 0.341201 0.342042 0.342871 0.343686 0.344488 0.345278 0.346055 0.34682 0.347572
          0.348313 0.349042 0.349759 0.350464 0.351158 0.351841 0.352513 0.353173 0.353822 0.354461 0.355088 0.355705
          0.356312 0.356908 0.357493 0.358068 0.358633 0.359188 0.359733 0.360267 0.360792 0.361307 0.361812 0.362308
          0.362793 0.36327 0.363736 0.364193 0.364641 0.365079 0.365508 0.365928 0.366338 0.366739 0.367131 0.367514
          0.367888 0.368252 0.368608 0.368954 0.369292 0.36962 0.36994 0.37025 0.370552 0.370844 0.371128 0.371403
          0.371668 0.371925 0.372173 0.372412 0.372642 0.372864 0.373076 0.373279 0.373473 0.373659 0.373835 0.374003
          0.374161 0.37431 0.37445 0.374581 0.374703 0.374816 0.374919 0.375013 0.375098 0.375174 0.37524 0.375297
          0.375344 0.375381 0.37541 0.375428 0.375436 0.375435 0.375424 0.375403 0.375372 0.375331 0.375279 0.375218
          0.375146 0.375063 0.37497 0.374866 0.374752 0.374626 0.37449 0.374342 0.374184 0.374013 0.373832 0.373638
          0.373433 0.373216 0.372987 0.372746 0.372492 0.372225 0.371946 0.371654 0.371348 0.37103 0.370697 0.370351
          0.369991 0.369617 0.369228 0.368824 0.368406 0.367972 0.367523 0.367058 0.366576 0.366078 0.365564 0.365032
          0.364483 0.363916 0.363331 0.362728 0.362105 0.361463 0.360801 0.360118 0.359415 0.35869 0.357944 0.357175
          0.356382 0.355567 0.354727 0.353862 0.352971 0.352056 0.351128 0.350333 0.351322 0.37302 0.646718
        </DataArray>
        <DataArray type="Float32" Name="relativePerm_n" NumberOfComponents="1" format="ascii">
          0.476541 0.422143 0.383758 0.354367 0.330782 0.311255 0.294718 0.280467 0.268017 0.257015 0.247201 0.238377
          0.230387 0.22311 0.216446 0.210314 0.20465 0.199396 0.194506 0.189942 0.185668 0.181657 0.177883 0.174324
          0.17096 0.167776 0.164756 0.161886 0.159156 0.156554 0.154071 0.151699 0.149429 0.147256 0.145172 0.143172
          0.14125 0.139403 0.137624 0.135911 0.13426 0.132667 0.131129 0.129643 0.128207 0.126818 0.125473 0.12417
          0.122908 0.121684 0.120497 0.119345 0.118226 0.117139 0.116083 0.115057 0.114058 0.113086 0.112141 0.11122
          0.110323 0.109449 0.108597 0.107766 0.106956 0.106166 0.105395 0.104643 0.103908 0.10319 0.102489 0.101805
          0.101135 0.100481 0.0998419 0.0992166 0.0986051 0.098007 0.0974218 0.0968492 0.0962888 0.0957403 0.0952033 0.0946776
          0.0941628 0.0936586 0.0931647 0.092681 0.0922071 0.0917427 0.0912877 0.0908418 0.0904048 0.0899765 0.0895567 0.0891451
          0.0887416 0.0883461 0.0879582 0.087578 0.0872051 0.0868395 0.086481 0.0861294 0.0857847 0.0854466 0.085115 0.0847899
          0.084471 0.0841584 0.0838518 0.0835511 0.0832563 0.0829672 0.0826837 0.0824058 0.0821333 0.0818662 0.0816044 0.0813478
          0.0810963 0.0808498 0.0806083 0.0803716 0.0801398 0.0799127 0.0796903 0.0794725 0.0792593 0.0790506 0.0788463 0.0786464
          0.0784509 0.0782596 0.0780726 0.0778897 0.0777111 0.0775365 0.0773659 0.0771995 0.0770369 0.0768784 0.0767237 0.0765729
          0.076426 0.0762829 0.0761435 0.076008 0.0758761 0.075748 0.0756236 0.0755028 0.0753857 0.0752722 0.0751623 0.075056
          0.0749533 0.0748542 0.0747586 0.0746665 0.074578 0.074493 0.0744115 0.0743335 0.0742591 0.0741881 0.0741206 0.0740567
          0.0739962 0.0739392 0.0738858 0.0738358 0.0737894 0.0737465 0.0737071 0.0736713 0.073639 0.0736103 0.0735852 0.0735636
          0.0735457 0.0735314 0.0735208 0.0735138 0.0735105 0.073511 0.0735152 0.0735232 0.073535 0.0735506 0.0735702 0.0735936
          0.073621 0.0736523 0.0736877 0.0737272 0.0737708 0.0738186 0.0738706 0.0739269 0.0739875 0.0740525 0.074122 0.0741959
          0.0742745 0.0743577 0.0744456 0.0745384 0.074636 0.0747386 0.0748462 0.074959 0.075077 0.0752004 0.0753292 0.0754636
          0.0756036 0.0757494 0.0759011 0.0760588 0.0762227 0.0763929 0.0765695 0.0767528 0.0769428 0.0771398 0.0773438 0.0775551
          0.077774 0.0780005 0.0782349 0.0784774 0.0787282 0.0789876 0.0792559 0.0795332 0.07982 0.0801164 0.0804228 0.0807396
          0.0810669 0.0814053 0.0817551 0.0821167 0.0824905 0.0828764 0.0832693 0.083607 0.0831867 0.0744331 0.0141925
        </DataArray>
        <DataArray type="Float32" Name="porosity" NumberOfComponents="1" format="ascii">
          0.558 0.558 0.558 0.558 0.558 0.558 0.558 0.558 0.558 0.558 0.558 0.558
          0.558 0.558 0.558 0.558 0.558 0.558 0.558 0.558 0.558 0.558 0.558 0.558
          0.558 0.558 0.558 0.558 0.558 0.558 0.558 0.558 0.558 0.558 0.558 0.558
          0.558 0.558 0.558 0.558 0.558 0.558 0.558 0.558 0.558 0.558 0.558 0.558
          0.558 0.558 0.558 0.558 0.558 0.558 0.558 0.558 0.558 0.558 0.558 0.558
          0.558 0.558 0.558 0.558 0.558 0.558 0.558 0.558 0.558 0.558 0.558 0.558
          0.558 0.558 0.558 0.558 0.558 0.558 0.558 0.558 0.558 0.558 0.558 0.558
          0.558 0.558 0.558 0.558 0.558 0.558 0.558 0.558 0.558 0.558 0.558 0.558
          0.558 0.558 0.558 0.558 0.558 0.558 0.558 0.558 0.558 0.558 0.558 0.558
          0.558 0.558 0.558 0.558 0.558 0.558 0.558 0.558 0.558 0.558 0.558 0.558
          0.558 0.558 0.558 0.558 0.558 0.558 0.558 0.558 0.558 0.558 0.558 0.558
          0.558 0.558 0.558 0.558 0.558 0.558 0.558 0.558 0.558 0.558 0.558 0.558
          0.558 0.558 0.558 0.558 0.558 0.558 0.558 0.558 0.558 0.558 0.558 0.558
          0.558 0.558 0.558 0.558 0.558 0.558 0.558 0.558 0.558 0.558 0.558 0.558
          0.558 0.558 0.558 0.558 0.558 0.558 0.558 0.558 0.558 0.558 0.558 0.558
          0.558 0.558 0.558 0.558 0.558 0.558 0.558 0.558 0.558 0.558 0.558 0.558
          0.558 0.558 0.558 0.558 0.558 0.558 0.558 0.558 0.558 0.558 0.558 0.558
          0.558 0.558 0.558 0.558 0.558 0.558 0.558 0.558 0.558 0.558 0.558 0.558
          0.558 0.558 0.558 0.558 0.558 0.558 0.558 0.558 0.558 0.558 0.558 0.558
          0.558 0.558 0.558 0.558 0.558 0.558 0.558 0.558 0.558 0.558 0.558 0.558
          0.558 0.558 0.558 0.558 0.558 0.558 0.558 0.558 0.558 0.558 0.558
        </DataArray>
        <DataArray type="Float32" Name="filterVelocity_w" NumberOfComponents="1" format="ascii">
          0.000137326 0.000355188 0.0006112 0.000896311 0.00119072 0.00148948 0.00179051 0.00209265 0.0023952 0.00269769 0.0029998 0.00330128
          0.00360198 0.00390176 0.00420055 0.00449827 0.00479488 0.00509036 0.00538469 0.00567786 0.00596986 0.00626071 0.00655041 0.00683897
          0.00712641 0.00741274 0.00769799 0.00798216 0.00826528 0.00854736 0.00882844 0.00910852 0.00938763 0.00966579 0.00994302 0.0102193
          0.0104948 0.0107693 0.011043 0.0113159 0.0115879 0.0118592 0.0121297 0.0123994 0.0126683 0.0129366 0.0132041 0.0134709
          0.013737 0.0140025 0.0142673 0.0145315 0.014795 0.015058 0.0153203 0.0155821 0.0158432 0.0161038 0.0163639 0.0166234
          0.0168824 0.0171409 0.0173989 0.0176563 0.0179133 0.0181698 0.0184259 0.0186815 0.0189366 0.0191914 0.0194456 0.0196995
          0.019953 0.020206 0.0204587 0.020711 0.0209629 0.0212144 0.0214656 0.0217164 0.0219669 0.022217 0.0224668 0.0227162
          0.0229654 0.0232142 0.0234628 0.023711 0.0239589 0.0242066 0.0244539 0.024701 0.0249478 0.0251944 0.0254407 0.0256867
          0.0259325 0.026178 0.0264233 0.0266684 0.0269132 0.0271579 0.0274023 0.0276464 0.0278904 0.0281342 0.0283778 0.0286211
          0.0288643 0.0291073 0.0293501 0.0295927 0.0298352 0.0300774 0.0303195 0.0305615 0.0308033 0.0310449 0.0312864 0.0315277
          0.0317689 0.0320099 0.0322508 0.0324915 0.0327321 0.0329726 0.033213 0.0334532 0.0336933 0.0339333 0.0341732 0.034413
          0.0346526 0.0348922 0.0351316 0.0353709 0.0356102 0.0358493 0.0360883 0.0363273 0.0365662 0.0368049 0.0370436 0.0372822
          0.0375207 0.0377592 0.0379975 0.0382358 0.038474 0.0387121 0.0389502 0.0391882 0.0394261 0.039664 0.0399018 0.0401395
          0.0403772 0.0406148 0.0408523 0.0410898 0.0413272 0.0415646 0.0418019 0.0420392 0.0422764 0.0425135 0.0427506 0.0429877
          0.0432247 0.0434616 0.0436985 0.0439354 0.0441722 0.0444089 0.0446456 0.0448823 0.0451189 0.0453554 0.0455919 0.0458283
          0.0460647 0.0463011 0.0465373 0.0467736 0.0470097 0.0472459 0.0474819 0.0477179 0.0479538 0.0481897 0.0484255 0.0486612
          0.0488969 0.0491325 0.049368 0.0496034 0.0498388 0.0500741 0.0503093 0.0505443 0.0507793 0.0510142 0.051249 0.0514837
          0.0517183 0.0519527 0.0521871 0.0524213 0.0526553 0.0528893 0.053123 0.0533566 0.0535901 0.0538234 0.0540565 0.0542894
          0.0545221 0.0547546 0.0549869 0.0552189 0.0554507 0.0556823 0.0559135 0.0561445 0.0563752 0.0566056 0.0568357 0.0570654
          0.0572948 0.0575238 0.0577523 0.0579805 0.0582082 0.0584355 0.0586622 0.0588884 0.0591141 0.0593392 0.0595638 0.0597876
          0.0600108 0.0602333 0.060455 0.060676 0.0608961 0.0611153 0.0613336 0.0615505 0.0617635 0.0619528 0.0620372
        </DataArray>
        <DataArray type="Float32" Name="filterVelocity_n" NumberOfComponents="1" format="ascii">
          0.324495 0.32467 0.325009 0.325331 0.325642 0.325946 0.326246 0.326542 0.326838 0.327133 0.327429 0.327727
          0.328027 0.328329 0.328634 0.328943 0.329255 0.329571 0.329891 0.330216 0.330545 0.330878 0.331216 0.331559
          0.331907 0.332259 0.332617 0.33298 0.333348 0.333721 0.334099 0.334483 0.334872 0.335267 0.335667 0.336072
          0.336483 0.3369 0.337323 0.337751 0.338184 0.338624 0.339069 0.33952 0.339978 0.34044 0.340909 0.341384
          0.341865 0.342352 0.342845 0.343345 0.34385 0.344362 0.34488 0.345404 0.345935 0.346472 0.347015 0.347566
          0.348122 0.348685 0.349255 0.349832 0.350415 0.351005 0.351602 0.352206 0.352817 0.353435 0.35406 0.354693
          0.355332 0.355979 0.356633 0.357294 0.357964 0.35864 0.359324 0.360016 0.360716 0.361423 0.362138 0.362862
          0.363593 0.364333 0.365081 0.365837 0.366601 0.367374 0.368156 0.368946 0.369745 0.370553 0.371369 0.372195
          0.37303 0.373874 0.374728 0.375591 0.376463 0.377345 0.378237 0.379139 0.380051 0.380973 0.381905 0.382848
          0.383801 0.384764 0.385739 0.386724 0.387721 0.388728 0.389747 0.390778 0.39182 0.392873 0.393939 0.395017
          0.396107 0.397209 0.398324 0.399452 0.400593 0.401747 0.402914 0.404094 0.405288 0.406497 0.407719 0.408955
          0.410206 0.411472 0.412752 0.414048 0.415359 0.416686 0.418028 0.419387 0.420762 0.422153 0.423561 0.424987
          0.42643 0.42789 0.429369 0.430866 0.432381 0.433915 0.435469 0.437042 0.438635 0.440248 0.441881 0.443535
          0.445211 0.446908 0.448628 0.45037 0.452134 0.453922 0.455733 0.457569 0.459429 0.461314 0.463225 0.465161
          0.467125 0.469115 0.471132 0.473178 0.475252 0.477355 0.479488 0.481652 0.483846 0.486073 0.488331 0.490622
          0.492947 0.495307 0.497701 0.500132 0.502599 0.505103 0.507646 0.510228 0.51285 0.515513 0.518218 0.520966
          0.523758 0.526595 0.529477 0.532407 0.535385 0.538413 0.541491 0.544621 0.547805 0.551043 0.554337 0.557688
          0.561099 0.56457 0.568103 0.5717 0.575362 0.579092 0.582892 0.586762 0.590706 0.594725 0.598821 0.602998
          0.607257 0.6116 0.616031 0.620551 0.625164 0.629873 0.634681 0.63959 0.644605 0.649728 0.654964 0.660316
          0.665787 0.671383 0.677108 0.682966 0.688961 0.6951 0.701387 0.707828 0.714428 0.721195 0.728133 0.735251
          0.742556 0.750055 0.757755 0.765667 0.773798 0.782158 0.790758 0.799609 0.808729 0.818201 0.823012
        </DataArray>
        <DataArray type="Float32" Name="temperature" NumberOfComponents="1" format="ascii">
          299.75 299.75 299.75 299.75 299.75 299.75 299.75 299.75 299.75 299.75 299.75 299.75
          299.75 299.75 299.75 299.75 299.75 299.75 299.75 299.75 299.75 299.75 299.75 299.75
          299.75 299.75 299.75 299.75 299.75 299.75 299.75 299.75 299.75 299.75 299.75 299.75
          299.75 299.75 299.75 299.75 299.75 299.75 299.75 299.75 299.75 299.75 299.75 299.75
          299.75 299.75 299.75 299.75 299.75 299.75 299.75 299.75 299.75 299.75 299.75 299.75
          299.75 299.75 299.75 299.75 299.75 299.75 299.75 299.75 299.75 299.75 299.75 299.75
          299.75 299.75 299.75 299.75 299.75 299.75 299.75 299.75 299.75 299.75 299.75 299.75
          299.75 299.75 299.75 299.75 299.75 299.75 299.75 299.75 299.75 299.75 299.75 299.75
          299.75 299.75 299.75 299.75 299.75 299.75 299.75 299.75 299.75 299.75 299.75 299.75
          299.75 299.75 299.75 299.75 299.75 299.75 299.75 299.75 299.75 299.75 299.75 299.75
          299.75 299.75 299.75 299.75 299.75 299.75 299.75 299.75 299.75 299.75 299.75 299.75
          299.75 299.75 299.75 299.75 299.75 299.75 299.75 299.75 299.75 299.75 299.75 299.75
          299.75 299.75 299.75 299.75 299.75 299.75 299.75 299.75 299.75 299.75 299.75 299.75
          299.75 299.75 299.75 299.75 299.75 299.75 299.75 299.75 299.75 299.75 299.75 299.75
          299.75 299.75 299.75 299.75 299.75 299.75 299.75 299.75 299.75 299.75 299.75 299.75
          299.75 299.75 299.75 299.75 299.75 299.75 299.75 299.75 299.75 299.75 299.75 299.75
          299.75 299.75 299.75 299.75 299.75 299.75 299.75 299.75 299.75 299.75 299.75 299.75
          299.75 299.75 299.75 299.75 299.75 299.75 299.75 299.75 299.75 299.75 299.75 299.75
          299.75 299.75 299.75 299.75 299.75 299.75 299.75 299.75 299.75 299.75 299.75 299.75
          299.75 299.75 299.75 299.75 299.75 299.75 299.75 299.75 299.75 299.75 299.75 299.75
          299.75 299.75 299.75 299.75 299.75 299.75 299.75 299.75 299.75 299.75 299.75
        </DataArray>
      </PointData>
      <Points>
        <DataArray type="Float32" Name="Coordinates" NumberOfComponents="3" format="ascii">
          0 0 0 0.4 0 0 0.8 0 0 1.2 0 0
          1.6 0 0 2 0 0 2.4 0 0 2.8 0 0
          3.2 0 0 3.6 0 0 4 0 0 4.4 0 0
          4.8 0 0 5.2 0 0 5.6 0 0 6 0 0
          6.4 0 0 6.8 0 0 7.2 0 0 7.6 0 0
          8 0 0 8.4 0 0 8.8 0 0 9.2 0 0
          9.6 0 0 10 0 0 10.4 0 0 10.8 0 0
          11.2 0 0 11.6 0 0 12 0 0 12.4 0 0
          12.8 0 0 13.2 0 0 13.6 0 0 14 0 0
          14.4 0 0 14.8 0 0 15.2 0 0 15.6 0 0
          16 0 0 16.4 0 0 16.8 0 0 17.2 0 0
          17.6 0 0 18 0 0 18.4 0 0 18.8 0 0
          19.2 0 0 19.6 0 0 20 0 0 20.4 0 0
          20.8 0 0 21.2 0 0 21.6 0 0 22 0 0
          22.4 0 0 22.8 0 0 23.2 0 0 23.6 0 0
          24 0 0 24.4 0 0 24.8 0 0 25.2 0 0
          25.6 0 0 26 0 0 26.4 0 0 26.8 0 0
          27.2 0 0 27.6 0 0 28 0 0 28.4 0 0
          28.8 0 0 29.2 0 0 29.6 0 0 30 0 0
          30.4 0 0 30.8 0 0 31.2 0 0 31.6 0 0
          32 0 0 32.4 0 0 32.8 0 0 33.2 0 0
          33.6 0 0 34 0 0 34.4 0 0 34.8 0 0
          35.2 0 0 35.6 0 0 36 0 0 36.4 0 0
          36.8 0 0 37.2 0 0 37.6 0 0 38 0 0
          38.4 0 0 38.8 0 0 39.2 0 0 39.6 0 0
          40 0 0 40.4 0 0 40.8 0 0 41.2 0 0
          41.6 0 0 42 0 0 42.4 0 0 42.8 0 0
          43.2 0 0 43.6 0 0 44 0 0 44.4 0 0
          44.8 0 0 45.2 0 0 45.6 0 0 46 0 0
          46.4 0 0 46.8 0 0 47.2 0 0 47.6 0 0
          48 0 0 48.4 0 0 48.8 0 0 49.2 0 0
          49.6 0 0 50 0 0 50.4 0 0 50.8 0 0
          51.2 0 0 51.6 0 0 52 0 0 52.4 0 0
          52.8 0 0 53.2 0 0 53.6 0 0 54 0 0
          54.4 0 0 54.8 0 0 55.2 0 0 55.6 0 0
          56 0 0 56.4 0 0 56.8 0 0 57.2 0 0
          57.6 0 0 58 0 0 58.4 0 0 58.8 0 0
          59.2 0 0 59.6 0 0 60 0 0 60.4 0 0
          60.8 0 0 61.2 0 0 61.6 0 0 62 0 0
          62.4 0 0 62.8 0 0 63.2 0 0 63.6 0 0
          64 0 0 64.4 0 0 64.8 0 0 65.2 0 0
          65.6 0 0 66 0 0 66.4 0 0 66.8 0 0
          67.2 0 0 67.6 0 0 68 0 0 68.4 0 0