<?xml version="1.0"?>
<VTKFile type="PolyData" version="0.1" byte_order="LittleEndian">
  <PolyData>
    <Piece NumberOfLines="250" NumberOfPoints="251">
      <PointData Scalars="pressure_w">
        <DataArray type="Float32" Name="pressure_w" NumberOfComponents="1" format="ascii">
          262373 262349 262294 262219 262129 262025 261910 261786 261652 261509 261358 261200
          261034 260862 260682 260496 260304 260105 259900 259690 259474 259252 259024 258791
          258553 258310 258061 257807 257549 257285 257016 256743 256465 256182 255894 255602
          255305 255004 254698 254387 254072 253753 253430 253102 252770 252433 252093 251748
          251399 251045 250688 250326 249961 249591 249218 248840 248458 248072 247683 247289
          246892 246490 246085 245675 245262 244845 244424 243999 243571 243138 242702 242262
          241818 241371 240920 240464 240006 239543 239077 238607 238133 237656 237174 236690
          236201 235709 235213 234713 234210 233703 233193 232678 232160 231639 231114 230585
          230052 229516 228976 228433 227886 227335 226781 226223 225662 225096 224528 223955
          223379 222799 222216 221629 221038 220444 219846 219245 218640 218031 217418 216802
          216183 215559 214932 214302 213667 213029 212388 211742 211093 210440 209784 209124
          208460 207793 207121 206446 205768 205086 204399 203710 203016 202319 201618 200913
          200204 199492 198775 198055 197331 196604 195872 195137 194398 193655 192908 192157
          191402 190644 189881 189115 188344 187570 186792 186010 185223 184433 183639 182841
          182038 181232 180421 179607 178788 177965 177139 176307 175472 174633 173789 172941
          172089 171233 170372 169507 168638 167764 166886 166004 165117 164226 163330 162430
          161525 160616 159702 158784 157861 156933 156001 155064 154122 153176 152225 151269
          150308 149342 148371 147396 146415 145429 144439 143443 142442 141436 140424 139408
          138386 137359 136326 135288 134244 133195 132140 131080 130014 128942 127865 126781
          125692 124596 123495 122387 121273 120153 119027 117894 116755 115609 114456 113297
          112131 110958 109778 108591 107397 106195 104986 103770 102546 101322 100166
        </DataArray>
        <DataArray type="Float32" Name="pressure_n" NumberOfComponents="1" format="ascii">
          264881 264794 264695 264587 264470 264344 264210 264068 263919 263763 263601 263431
          263256 263074 262885 262691 262491 262286 262074 261858 261635 261408 261175 260937
          260694 260446 260193 259935 259672 259404 259132 258855 258573 258287 257996 257700
          257400 257096 256787 256474 256156 255834 255508 255178 254843 254504 254161 253814
          253463 253108 252748 252385 252017 251645 251270 250890 250507 250119 249728 249332
          248933 248530 248123 247712 247297 246879 246456 246030 245600 245166 244729 244287
          243842 243393 242941 242484 242024 241561 241093 240622 240147 239668 239186 238700
          238211 237717 237220 236720 236215 235708 235196 234681 234162 233640 233113 232584
          232050 231513 230973 230428 229881 229329 228774 228215 227653 227087 226518 225944
          225368 224787 224203 223616 223024 222429 221831 221229 220623 220014 219400 218784
          218164 217540 216912 216281 215646 215007 214365 213719 213070 212416 211760 211099
          210435 209767 209095 208420 207741 207058 206372 205681 204987 204290 203588 202883
          202174 201461 200744 200024 199300 198572 197840 197105 196365 195622 194875 194124
          193369 192610 191847 191080 190310 189535 188757 187974 187188 186398 185603 184805
          184002 183196 182385 181570 180752 179929 179102 178271 177435 176596 175752 174904
          174052 173196 172335 171470 170601 169727 168849 167967 167080 166189 165293 164393
          163488 162579 161665 160747 159824 158897 157965 157028 156086 155140 154189 153233
          152272 151307 150336 149361 148381 147395 146405 145409 144409 143403 142392 141375
          140354 139327 138295 137257 136214 135165 134111 133051 131985 130914 129837 128754
          127665 126570 125469 124362 123249 122129 121004 119871 118733 117588 116436 115277
          114112 112940 111761 110574 109381 108180 106972 105756 104532 103287 101878
        </DataArray>
        <DataArray type="Float32" Name="density_w" NumberOfComponents="1" format="ascii">
          1000 1000 1000 1000 1000 1000 1000 1000 1000 1000 1000 1000
          1000 1000 1000 1000 1000 1000 1000 1000 1000 1000 1000 1000
          1000 1000 1000 1000 1000 1000 1000 1000 1000 1000 1000 1000
          1000 1000 1000 1000 1000 1000 1000 1000 1000 1000 1000 1000
          1000 1000 1000 1000 1000 1000 1000 1000 1000 1000 1000 1000
          1000 1000 1000 1000 1000 1000 1000 1000 1000 1000 1000 1000
          1000 1000 1000 1000 1000 1000 1000 1000 1000 1000 1000 1000
          1000 1000 1000 1000 1000 1000 1000 1000 1000 1000 1000 1000
          1000 1000 1000 1000 1000 1000 1000 1000 1000 1000 1000 1000
          1000 1000 1000 1000 1000 1000 1000 1000 1000 1000 1000 1000
          1000 1000 1000 1000 1000 1000 1000 1000 1000 1000 1000 1000
          1000 1000 1000 1000 1000 1000 1000 1000 1000 1000 1000 1000
          1000 1000 1000 1000 1000 1000 1000 1000 1000 1000 1000 1000
          1000 1000 1000 1000 1000 1000 1000 1000 1000 1000 1000 1000
          1000 1000 1000 1000 1000 1000 1000 1000 1000 1000 1000 1000
          1000 1000 1000 1000 1000 1000 1000 1000 1000 1000 1000 1000
          1000 1000 1000 1000 1000 1000 1000 1000 1000 1000 1000 1000
          1000 1000 1000 1000 1000 1000 1000 1000 1000 1000 1000 1000
          1000 1000 1000 1000 1000 1000 1000 1000 1000 1000 1000 1000
          1000 1000 1000 1000 1000 1000 1000 1000 1000 1000 1000 1000
          1000 1000 1000 1000 1000 1000 1000 1000 1000 1000 1000
        </DataArray>
        <DataArray type="Float32" Name="density_n" NumberOfComponents="1" format="ascii">
          3.0779 3.07689 3.07575 3.07449 3.07313 3.07166 3.07011 3.06846 3.06673 3.06492 3.06303 3.06106
          3.05902 3.0569 3.05472 3.05246 3.05014 3.04775 3.0453 3.04278 3.04019 3.03755 3.03485 3.03208
          3.02926 3.02637 3.02343 3.02043 3.01738 3.01427 3.0111 3.00788 3.00461 3.00128 2.9979 2.99447
          2.99098 2.98744 2.98386 2.98022 2.97653 2.97279 2.969 2.96516 2.96127 2.95733 2.95335 2.94931
          2.94523 2.9411 2.93692 2.9327 2.92843 2.92411 2.91974 2.91533 2.91088 2.90637 2.90183 2.89723
          2.89259 2.88791 2.88318 2.8784 2.87358 2.86872 2.86381 2.85886 2.85386 2.84882 2.84374 2.83861
          2.83344 2.82822 2.82296 2.81766 2.81231 2.80692 2.80149 2.79602 2.7905 2.78494 2.77933 2.77369
          2.768 2.76227 2.75649 2.75067 2.74481 2.73891 2.73297 2.72698 2.72095 2.71488 2.70877 2.70261
          2.69642 2.69018 2.68389 2.67757 2.6712 2.6648 2.65835 2.65185 2.64532 2.63874 2.63213 2.62546
          2.61876 2.61202 2.60523 2.5984 2.59153 2.58462 2.57767 2.57067 2.56363 2.55655 2.54943 2.54226
          2.53505 2.5278 2.52051 2.51317 2.5058 2.49838 2.49091 2.48341 2.47586 2.46827 2.46064 2.45296
          2.44524 2.43748 2.42968 2.42183 2.41394 2.40601 2.39803 2.39001 2.38194 2.37384 2.36569 2.35749
          2.34925 2.34097 2.33264 2.32427 2.31586 2.3074 2.2989 2.29035 2.28176 2.27312 2.26444 2.25571
          2.24694 2.23812 2.22926 2.22035 2.21139 2.20239 2.19335 2.18426 2.17512 2.16593 2.1567 2.14742
          2.1381 2.12873 2.11931 2.10984 2.10033 2.09077 2.08116 2.0715 2.06179 2.05204 2.04223 2.03238
          2.02248 2.01253 2.00252 1.99247 1.98237 1.97222 1.96202 1.95177 1.94146 1.93111 1.9207 1.91024
          1.89973 1.88916 1.87855 1.86788 1.85715 1.84638 1.83554 1.82466 1.81372 1.80272 1.79167 1.78056
          1.7694 1.75818 1.7469 1.73557 1.72418 1.71273 1.70122 1.68965 1.67802 1.66633 1.65459 1.64278
          1.63091 1.61897 1.60698 1.59492 1.5828 1.57061 1.55836 1.54605 1.53366 1.52121 1.5087 1.49611
          1.48346 1.47074 1.45794 1.44508 1.43215 1.41914 1.40606 1.3929 1.37967 1.36636 1.35298 1.33952
          1.32598 1.31236 1.29865 1.28487 1.271 1.25705 1.24301 1.22888 1.21465 1.20019 1.18382
        </DataArray>
        <DataArray type="Float32" Name="saturation_w" NumberOfComponents="1" format="ascii">
          0.346478 0.38673 0.416412 0.439989 0.459519 0.476151 0.4906 0.503342 0.514715 0.524965 0.534277 0.542796
          0.550634 0.557884 0.564618 0.5709 0.57678 0.582302 0.587502 0.592412 0.597059 0.601468 0.605657 0.609647
          0.613452 0.617088 0.620567 0.6239 0.627098 0.63017 0.633123 0.635967 0.638707 0.641349 0.643901 0.646366
          0.64875 0.651057 0.653291 0.655457 0.657556 0.659594 0.661572 0.663494 0.665361 0.667178 0.668945 0.670666
          0.672341 0.673973 0.675564 0.677115 0.678629 0.680105 0.681546 0.682954 0.684328 0.685671 0.686984 0.688267
          0.689522 0.690749 0.69195 0.693126 0.694276 0.695402 0.696505 0.697586 0.698644 0.699681 0.700698 0.701694
          0.702671 0.703629 0.704568 0.705489 0.706393 0.707279 0.708149 0.709003 0.70984 0.710663 0.71147 0.712263
          0.713041 0.713805 0.714555 0.715292 0.716016 0.716726 0.717425 0.71811 0.718784 0.719446 0.720096 0.720735
          0.721363 0.72198 0.722586 0.723181 0.723766 0.724341 0.724906 0.725461 0.726006 0.726542 0.727069 0.727586
          0.728094 0.728593 0.729084 0.729565 0.730039 0.730503 0.73096 0.731408 0.731848 0.73228 0.732705 0.733121
          0.73353 0.733931 0.734325 0.734711 0.73509 0.735462 0.735827 0.736184 0.736535 0.736878 0.737215 0.737544
          0.737867 0.738184 0.738493 0.738796 0.739093 0.739383 0.739666 0.739943 0.740214 0.740478 0.740736 0.740988
          0.741234 0.741473 0.741707 0.741934 0.742155 0.74237 0.742579 0.742782 0.742979 0.74317 0.743355 0.743534
          0.743707 0.743875 0.744036 0.744191 0.744341 0.744485 0.744622 0.744754 0.74488 0.745 0.745114 0.745223
          0.745325 0.745421 0.745512 0.745596 0.745675 0.745747 0.745814 0.745874 0.745929 0.745977 0.746019 0.746055
          0.746085 0.746109 0.746126 0.746138 0.746143 0.746141 0.746133 0.746119 0.746098 0.746071 0.746037 0.745996
          0.745948 0.745894 0.745833 0.745765 0.74569 0.745608 0.745519 0.745422 0.745318 0.745207 0.745088 0.744961
          0.744827 0.744685 0.744535 0.744377 0.744211 0.744037 0.743854 0.743662 0.743462 0.743253 0.743035 0.742808
          0.742571 0.742325 0.742069 0.741804 0.741528 0.741243 0.740946 0.740639 0.740321 0.739992 0.739652 0.7393
          0.738936 0.73856 0.738171 0.737769 0.737355 0.736927 0.736485 0.736029 0.735558 0.735073 0.734572 0.734055
          0.733522 0.732973 0.732406 0.731821 0.731218 0.730597 0.729966 0.729427 0.730118 0.744677 0.887202
        </DataArray>
        <DataArray type="Float32" Name="saturation_n" NumberOfComponents="1" format="ascii">
          0.653522 0.61327 0.583588 0.560011 0.540481 0.523849 0.5094 0.496658 0.485285 0.475035 0.465723 0.457204
          0.449366 0.442116 0.435382 0.4291 0.42322 0.417698 0.412498 0.407588 0.402941 0.398532 0.394343 0.390353
          0.386548 0.382912 0.379433 0.3761 0.372902 0.369831 0.366877 0.364033 0.361293 0.358651 0.356099 0.353634
          0.35125 0.348943 0.346709 0.344543 0.342444 0.340406 0.338428 0.336506 0.334639 0.332822 0.331055 0.329334
          0.327659 0.326027 0.324436 0.322885 0.321371 0.319895 0.318454 0.317046 0.315672 0.314329 0.313016 0.311733
          0.310478 0.309251 0.30805 0.306874 0.305724 0.304598 0.303495 0.302414 0.301356 0.300319 0.299302 0.298306
          0.297329 0.296371 0.295432 0.294511 0.293607 0.292721 0.291851 0.290997 0.29016 0.289337 0.28853 0.287737
          0.286959 0.286195 0.285445 0.284708 0.283984 0.283274 0.282575 0.28189 0.281216 0.280554 0.279904 0.279265
          0.278637 0.27802 0.277414 0.276819 0.276234 0.275659 0.275094 0.274539 0.273994 0.273458 0.272931 0.272414
          0.271906 0.271407 0.270916 0.270435 0.269962 0.269497 0.26904 0.268592 0.268152 0.26772 0.267295 0.266879
          0.26647 0.266069 0.265675 0.265289 0.26491 0.264538 0.264173 0.263816 0.263465 0.263122 0.262785 0.262456
          0.262133 0.261816 0.261507 0.261204 0.260907 0.260617 0.260334 0.260057 0.259786 0.259522 0.259264 0.259012
          0.258766 0.258527 0.258293 0.258066 0.257845 0.25763 0.257421 0.257218 0.257021 0.25683 0.256645 0.256466
          0.256293 0.256125 0.255964 0.255809 0.255659 0.255515 0.255378 0.255246 0.25512 0.255 0.254886 0.254777
          0.254675 0.254579 0.254488 0.254404 0.254325 0.254253 0.254186 0.254126 0.254071 0.254023 0.253981 0.253945
          0.253915 0.253891 0.253874 0.253862 0.253857 0.253859 0.253867 0.253881 0.253902 0.253929 0.253963 0.254004
          0.254052 0.254106 0.254167 0.254235 0.25431 0.254392 0.254481 0.254578 0.254682 0.254793 0.254912 0.255039
          0.255173 0.255315 0.255465 0.255623 0.255789 0.255963 0.256146 0.256338 0.256538 0.256747 0.256965 0.257192
          0.257429 0.257675 0.25793 0.258196 0.258472 0.258757 0.259054 0.259361 0.259679 0.260008 0.260348 0.2607
          0.261064 0.26144 0.261829 0.262231 0.262645 0.263073 0.263515 0.263971 0.264442 0.264927 0.265428 0.265945
          0.266478 0.267027 0.267594 0.268179 0.268782 0.269403 0.270034 0.270573 0.269882 0.255323 0.112798
        </DataArray>
        <DataArray type="Float32" Name="relativePerm_w" NumberOfComponents="1" format="ascii">
          0.0393184 0.0539662 0.0668284 0.0783958 0.0889395 0.0986394 0.107626 0.115998 0.123836 0.131201 0.138148 0.144719
          0.150952 0.156879 0.162527 0.16792 0.17308 0.178023 0.182768 0.187327 0.191715 0.195943 0.200021 0.20396
          0.207766 0.21145 0.215016 0.218473 0.221826 0.225081 0.228242 0.231315 0.234303 0.237211 0.240043 0.242802
          0.245491 0.248113 0.250672 0.253169 0.255608 0.25799 0.260318 0.262594 0.264819 0.266997 0.269127 0.271213
          0.273255 0.275256 0.277215 0.279136 0.281018 0.282864 0.284674 0.286449 0.288191 0.2899 0.291578 0.293225
          0.294842 0.296429 0.297989 0.299521 0.301025 0.302504 0.303957 0.305386 0.30679 0.30817 0.309527 0.310861
          0.312173 0.313464 0.314733 0.315982 0.317211 0.318419 0.319608 0.320778 0.32193 0.323063 0.324178 0.325275
          0.326356 0.327419 0.328465 0.329495 0.33051 0.331508 0.33249 0.333458 0.33441 0.335348 0.336271 0.337179
          0.338074 0.338954 0.339821 0.340674 0.341514 0.342341 0.343155 0.343956 0.344744 0.34552 0.346284 0.347035
          0.347775 0.348502 0.349218 0.349923 0.350615 0.351297 0.351967 0.352626 0.353274 0.353911 0.354538 0.355153
          0.355758 0.356353 0.356937 0.357511 0.358075 0.358628 0.359172 0.359705 0.360229 0.360743 0.361246 0.361741
          0.362225 0.3627 0.363165 0.363621 0.364068 0.364505 0.364932 0.365351 0.36576 0.36616 0.36655 0.366932
          0.367304 0.367668 0.368022 0.368367 0.368703 0.36903 0.369349 0.369658 0.369958 0.370249 0.370532 0.370805
          0.37107 0.371326 0.371572 0.37181 0.372039 0.372259 0.37247 0.372672 0.372865 0.373049 0.373224 0.373391
          0.373548 0.373696 0.373835 0.373964 0.374085 0.374197 0.374299 0.374392 0.374476 0.37455 0.374615 0.374671
          0.374717 0.374753 0.37478 0.374797 0.374805 0.374803 0.374791 0.374769 0.374736 0.374694 0.374642 0.374579
          0.374506 0.374423 0.374329 0.374224 0.374109 0.373982 0.373845 0.373697 0.373537 0.373366 0.373184 0.37299
          0.372784 0.372566 0.372337 0.372094 0.37184 0.371573 0.371293 0.371001 0.370695 0.370376 0.370043 0.369697
          0.369337 0.368962 0.368573 0.36817 0.367751 0.367317 0.366868 0.366403 0.365922 0.365425 0.364911 0.36438
          0.363831 0.363265 0.362681 0.362078 0.361457 0.360815 0.360155 0.359474 0.358772 0.358049 0.357304 0.356537
          0.355747 0.354934 0.354096 0.353234 0.352346 0.351434 0.350509 0.34972 0.350731 0.372553 0.646793
        </DataArray>
        <DataArray type="Float32" Name="relativePerm_n" NumberOfComponents="1" format="ascii">
          0.477199 0.422774 0.38436 0.354943 0.331337 0.311792 0.295238 0.280973 0.268508 0.257494 0.247669 0.238834
          0.230834 0.223547 0.216874 0.210734 0.205061 0.199799 0.194903 0.190331 0.186052 0.182034 0.178254 0.174689
          0.171321 0.168131 0.165106 0.162232 0.159497 0.156891 0.154404 0.152028 0.149755 0.147578 0.145491 0.143487
          0.141563 0.139712 0.137931 0.136215 0.134561 0.132966 0.131425 0.129937 0.128498 0.127107 0.12576 0.124455
          0.123191 0.121965 0.120776 0.119622 0.118502 0.117414 0.116356 0.115328 0.114327 0.113354 0.112407 0.111485
          0.110586 0.109711 0.108858 0.108026 0.107215 0.106424 0.105652 0.104898 0.104162 0.103444 0.102742 0.102056
          0.101386 0.100731 0.100091 0.0994646 0.0988523 0.0982534 0.0976675 0.0970941 0.096533 0.0959838 0.0954462 0.0949198
          0.0944043 0.0938995 0.0934051 0.0929208 0.0924463 0.0919814 0.0915259 0.0910795 0.090642 0.0902132 0.0897929 0.089381
          0.0889771 0.0885811 0.0881929 0.0878123 0.0874391 0.0870731 0.0867143 0.0863624 0.0860173 0.0856789 0.0853471 0.0850217
          0.0847026 0.0843897 0.0840828 0.0837819 0.0834869 0.0831976 0.082914 0.0826359 0.0823633 0.0820961 0.0818341 0.0815773
          0.0813257 0.0810791 0.0808375 0.0806008 0.0803689 0.0801417 0.0799193 0.0797014 0.0794882 0.0792794 0.0790752 0.0788753
          0.0786797 0.0784885 0.0783014 0.0781186 0.07794 0.0777654 0.077595 0.0774285 0.0772661 0.0771076 0.076953 0.0768024
          0.0766555 0.0765125 0.0763733 0.0762379 0.0761062 0.0759782 0.075854 0.0757333 0.0756164 0.0755031 0.0753934 0.0752873
          0.0751848 0.0750858 0.0749905 0.0748986 0.0748103 0.0747256 0.0746444 0.0745666 0.0744924 0.0744217 0.0743545 0.0742909
          0.0742307 0.074174 0.0741209 0.0740712 0.0740251 0.0739825 0.0739435 0.073908 0.0738761 0.0738477 0.0738229 0.0738018
          0.0737842 0.0737703 0.07376 0.0737535 0.0737506 0.0737515 0.0737561 0.0737645 0.0737767 0.0737928 0.0738127 0.0738366
          0.0738644 0.0738963 0.0739321 0.073972 0.0740161 0.0740644 0.0741168 0.0741736 0.0742347 0.0743001 0.0743701 0.0744445
          0.0745236 0.0746073 0.0746957 0.074789 0.0748871 0.0749902 0.0750983 0.0752116 0.0753301 0.075454 0.0755833 0.0757181
          0.0758586 0.0760049 0.0761571 0.0763153 0.0764797 0.0766504 0.0768275 0.0770112 0.0772016 0.077399 0.0776035 0.0778152
          0.0780345 0.0782613 0.0784961 0.0787389 0.0789901 0.0792498 0.0795184 0.079796 0.0800829 0.0803796 0.0806861 0.081003
          0.0813304 0.0816689 0.0820186 0.0823802 0.0827538 0.0831395 0.083532 0.0838683 0.0834377 0.0746124 0.0141844
        </DataArray>
        <DataArray type="Float32" Name="porosity" NumberOfComponents="1" format="ascii">
          0.558 0.558 0.558 0.558 0.558 0.558 0.558 0.558 0.558 0.558 0.558 0.558
          0.558 0.558 0.558 0.558 0.558 0.558 0.558 0.558 0.558 0.558 0.558 0.558
          0.558 0.558 0.558 0.558 0.558 0.558 0.558 0.558 0.558 0.558 0.558 0.558
          0.558 0.558 0.558 0.558 0.558 0.558 0.558 0.558 0.558 0.558 0.558 0.558
          0.558 0.558 0.558 0.558 0.558 0.558 0.558 0.558 0.558 0.558 0.558 0.558
          0.558 0.558 0.558 0.558 0.558 0.558 0.558 0.558 0.558 0.558 0.558 0.558
          0.558 0.558 0.558 0.558 0.558 0.558 0.558 0.558 0.558 0.558 0.558 0.558
          0.558 0.558 0.558 0.558 0.558 0.558 0.558 0.558 0.558 0.558 0.558 0.558
          0.558 0.558 0.558 0.558 0.558 0.558 0.558 0.558 0.558 0.558 0.558 0.558
          0.558 0.558 0.558 0.558 0.558 0.558 0.558 0.558 0.558 0.558 0.558 0.558
          0.558 0.558 0.558 0.558 0.558 0.558 0.558 0.558 0.558 0.558 0.558 0.558
          0.558 0.558 0.558 0.558 0.558 0.558 0.558 0.558 0.558 0.558 0.558 0.558
          0.558 0.558 0.558 0.558 0.558 0.558 0.558 0.558 0.558 0.558 0.558 0.558
          0.558 0.558 0.558 0.558 0.558 0.558 0.558 0.558 0.558 0.558 0.558 0.558
          0.558 0.558 0.558 0.558 0.558 0.558 0.558 0.558 0.558 0.558 0.558 0.558
          0.558 0.558 0.558 0.558 0.558 0.558 0.558 0.558 0.558 0.558 0.558 0.558
          0.558 0.558 0.558 0.558 0.558 0.558 0.558 0.558 0.558 0.558 0.558 0.558
          0.558 0.558 0.558 0.558 0.558 0.558 0.558 0.558 0.558 0.558 0.558 0.558
          0.558 0.558 0.558 0.558 0.558 0.558 0.558 0.558 0.558 0.558 0.558 0.558
          0.558 0.558 0.558 0.558 0.558 0.558 0.558 0.558 0.558 0.558 0.558 0.558
          0.558 0.558 0.558 0.558 0.558 0.558 0.558 0.558 0.558 0.558 0.558
        </DataArray>
        <DataArray type="Float32" Name="filterVelocity_w" NumberOfComponents="1" format="ascii">
          0.000136624 0.000353786 0.000608966 0.000893234 0.0011868 0.00148472 0.00178489 0.00208618 0.00238787 0.00268951 0.00299076 0.0032914
          0.00359125 0.00389019 0.00418813 0.00448502 0.0047808 0.00507545 0.00536895 0.00566129 0.00595247 0.0062425 0.00653137 0.00681911
          0.00710573 0.00739124 0.00767565 0.007959 0.00824129 0.00852255 0.00880279 0.00908204 0.00936031 0.00963763 0.00991402 0.0101895
          0.0104641 0.0107378 0.0110106 0.0112826 0.0115538 0.0118242 0.0120938 0.0123626 0.0126307 0.0128981 0.0131647 0.0134306
          0.0136959 0.0139604 0.0142243 0.0144876 0.0147502 0.0150122 0.0152736 0.0155345 0.0157947 0.0160544 0.0163135 0.016572
          0.0168301 0.0170876 0.0173446 0.0176011 0.0178571 0.0181127 0.0183677 0.0186223 0.0188765 0.0191302 0.0193835 0.0196364
          0.0198888 0.0201408 0.0203925 0.0206437 0.0208946 0.0211451 0.0213952 0.021645 0.0218944 0.0221434 0.0223922 0.0226406
          0.0228886 0.0231364 0.0233838 0.023631 0.0238778 0.0241243 0.0243706 0.0246165 0.0248622 0.0251076 0.0253528 0.0255977
          0.0258423 0.0260867 0.0263309 0.0265748 0.0268184 0.0270619 0.0273051 0.0275481 0.0277908 0.0280334 0.0282758 0.0285179
          0.0287599 0.0290016 0.0292432 0.0294846 0.0297258 0.0299668 0.0302076 0.0304483 0.0306888 0.0309292 0.0311693 0.0314094
          0.0316492 0.031889 0.0321285 0.0323679 0.0326072 0.0328464 0.0330854 0.0333243 0.033563 0.0338016 0.0340402 0.0342785
          0.0345168 0.0347549 0.034993 0.0352309 0.0354687 0.0357064 0.035944 0.0361815 0.0364189 0.0366562 0.0368935 0.0371306
          0.0373676 0.0376045 0.0378414 0.0380782 0.0383149 0.0385515 0.038788 0.0390244 0.0392608 0.0394971 0.0397333 0.0399694
          0.0402055 0.0404415 0.0406775 0.0409133 0.0411491 0.0413849 0.0416205 0.0418561 0.0420917 0.0423271 0.0425625 0.0427979
          0.0430332 0.0432684 0.0435036 0.0437387 0.0439737 0.0442087 0.0444436 0.0446785 0.0449133 0.045148 0.0453827 0.0456173
          0.0458519 0.0460863 0.0463208 0.0465551 0.0467894 0.0470236 0.0472578 0.0474918 0.0477258 0.0479597 0.0481936 0.0484274
          0.048661 0.0488946 0.0491281 0.0493616 0.0495949 0.0498281 0.0500613 0.0502943 0.0505272 0.05076 0.0509927 0.0512253
          0.0514577 0.05169 0.0519222 0.0521542 0.0523861 0.0526178 0.0528494 0.0530808 0.053312 0.053543 0.0537739 0.0540045
          0.0542349 0.0544651 0.0546951 0.0549248 0.0551543 0.0553835 0.0556124 0.0558411 0.0560694 0.0562974 0.0565251 0.0567524
          0.0569794 0.0572059 0.0574321 0.0576578 0.0578831 0.0581078 0.0583321 0.0585559 0.0587792 0.0590018 0.0592238 0.0594453
          0.059666 0.059886 0.0601053 0.0603238 0.0605414 0.0607582 0.060974 0.0611885 0.0613989 0.0615851 0.0616677
        </DataArray>
        <DataArray type="Float32" Name="filterVelocity_n" NumberOfComponents="1" format="ascii">
          0.325037 0.325206 0.325534 0.325847 0.326149 0.326445 0.326737 0.327026 0.327315 0.327604 0.327894 0.328186
          0.32848 0.328778 0.329078 0.329382 0.32969 0.330001 0.330317 0.330637 0.330962 0.331292 0.331626 0.331965
          0.332309 0.332659 0.333013 0.333372 0.333737 0.334107 0.334483 0.334863 0.33525 0.335641 0.336039 0.336441
          0.33685 0.337264 0.337684 0.338109 0.338541 0.338978 0.339421 0.33987 0.340324 0.340785 0.341252 0.341725
          0.342203 0.342688 0.343179 0.343677 0.34418 0.34469 0.345206 0.345728 0.346257 0.346792 0.347334 0.347883
          0.348437 0.348999 0.349567 0.350142 0.350724 0.351312 0.351908 0.35251 0.35312 0.353736 0.35436 0.35499
          0.355628 0.356274 0.356926 0.357586 0.358254 0.358929 0.359612 0.360303 0.361001 0.361707 0.362421 0.363143
          0.363873 0.364611 0.365358 0.366113 0.366876 0.367648 0.368428 0.369217 0.370015 0.370821 0.371637 0.372462
          0.373295 0.374138 0.374991 0.375852 0.376724 0.377605 0.378496 0.379396 0.380307 0.381228 0.382159 0.383101
          0.384053 0.385015 0.385989 0.386973 0.387968 0.388975 0.389993 0.391022 0.392063 0.393116 0.39418 0.395257
          0.396346 0.397447 0.398561 0.399688 0.400827 0.40198 0.403146 0.404325 0.405518 0.406725 0.407946 0.409182
          0.410431 0.411696 0.412975 0.41427 0.415579 0.416905 0.418246 0.419603 0.420977 0.422367 0.423774 0.425198
          0.42664 0.428099 0.429576 0.431071 0.432585 0.434118 0.43567 0.437241 0.438833 0.440444 0.442076 0.443729
          0.445403 0.447098 0.448816 0.450556 0.452318 0.454104 0.455914 0.457747 0.459605 0.461488 0.463397 0.465331
          0.467292 0.46928 0.471295 0.473338 0.47541 0.47751 0.479641 0.481801 0.483993 0.486216 0.488472 0.49076
          0.493082 0.495438 0.497829 0.500256 0.50272 0.50522 0.50776 0.510338 0.512956 0.515615 0.518315 0.521059
          0.523846 0.526678 0.529555 0.53248 0.535453 0.538475 0.541548 0.544672 0.547849 0.551081 0.554369 0.557713
          0.561117 0.564581 0.568106 0.571696 0.57535 0.579072 0.582863 0.586724 0.590659 0.594668 0.598755 0.602921
          0.607169 0.611501 0.61592 0.620428 0.625029 0.629724 0.634518 0.639414 0.644413 0.649521 0.654741 0.660076
          0.66553 0.671108 0.676813 0.682651 0.688626 0.694743 0.701007 0.707424 0.714 0.72074 0.727652 0.734741
          0.742016 0.749483 0.757151 0.765028 0.773122 0.781445 0.790004 0.798813 0.807889 0.817315 0.822103
        </DataArray>
        <DataArray type="Float32" Name="temperature" NumberOfComponents="1" format="ascii">
          299.75 299.75 299.75 299.75 299.75 299.75 299.75 299.75 299.75 299.75 299.75 299.75
          299.75 299.75 299.75 299.75 299.75 299.75 299.75 299.75 299.75 299.75 299.75 299.75
          299.75 299.75 299.75 299.75 299.75 299.75 299.75 299.75 299.75 299.75 299.75 299.75
          299.75 299.75 299.75 299.75 299.75 299.75 299.75 299.75 299.75 299.75 299.75 299.75
          299.75 299.75 299.75 299.75 299.75 299.75 299.75 299.75 299.75 299.75 299.75 299.75
          299.75 299.75 299.75 299.75 299.75 299.75 299.75 299.75 299.75 299.75 299.75 299.75
          299.75 299.75 299.75 299.75 299.75 299.75 299.75 299.75 299.75 299.75 299.75 299.75
          299.75 299.75 299.75 299.75 299.75 299.75 299.75 299.75 299.75 299.75 299.75 299.75
          299.75 299.75 299.75 299.75 299.75 299.75 299.75 299.75 299.75 299.75 299.75 299.75
          299.75 299.75 299.75 299.75 299.75 299.75 299.75 299.75 299.75 299.75 299.75 299.75
          299.75 299.75 299.75 299.75 299.75 299.75 299.75 299.75 299.75 299.75 299.75 299.75
          299.75 299.75 299.75 299.75 299.75 299.75 299.75 299.75 299.75 299.75 299.75 299.75
          299.75 299.75 299.75 299.75 299.75 299.75 299.75 299.75 299.75 299.75 299.75 299.75
          299.75 299.75 299.75 299.75 299.75 299.75 299.75 299.75 299.75 299.75 299.75 299.75
          299.75 299.75 299.75 299.75 299.75 299.75 299.75 299.75 299.75 299.75 299.75 299.75
          299.75 299.75 299.75 299.75 299.75 299.75 299.75 299.75 299.75 299.75 299.75 299.75
          299.75 299.75 299.75 299.75 299.75 299.75 299.75 299.75 299.75 299.75 299.75 299.75
          299.75 299.75 299.75 299.75 299.75 299.75 299.75 299.75 299.75 299.75 299.75 299.75
          299.75 299.75 299.75 299.75 299.75 299.75 299.75 299.75 299.75 299.75 299.75 299.75
          299.75 299.75 299.75 299.75 299.75 299.75 299.75 299.75 299.75 299.75 299.75 299.75
          299.75 299.75 299.75 299.75 299.75 299.75 299.75 299.75 299.75 299.75 299.75
        </DataArray>
      </PointData>
      <Points>
        <DataArray type="Float32" Name="Coordinates" NumberOfComponents="3" format="ascii">
          0 0 0 0.4 0 0 0.8 0 0 1.2 0 0
          1.6 0 0 2 0 0 2.4 0 0 2.8 0 0
          3.2 0 0 3.6 0 0 4 0 0 4.4 0 0
          4.8 0 0 5.2 0 0 5.6 0 0 6 0 0
          6.4 0 0 6.8 0 0 7.2 0 0 7.6 0 0
          8 0 0 8.4 0 0 8.8 0 0 9.2 0 0
          9.6 0 0 10 0 0 10.4 0 0 10.8 0 0
          11.2 0 0 11.6 0 0 12 0 0 12.4 0 0
          12.8 0 0 13.2 0 0 13.6 0 0 14 0 0
          14.4 0 0 14.8 0 0 15.2 0 0 15.6 0 0
          16 0 0 16.4 0 0 16.8 0 0 17.2 0 0
          17.6 0 0 18 0 0 18.4 0 0 18.8 0 0
          19.2 0 0 19.6 0 0 20 0 0 20.4 0 0
          20.8 0 0 21.2 0 0 21.6 0 0 22 0 0
          22.4 0 0 22.8 0 0 23.2 0 0 23.6 0 0
          24 0 0 24.4 0 0 24.8 0 0 25.2 0 0
          25.6 0 0 26 0 0 26.4 0 0 26.8 0 0
          27.2 0 0 27.6 0 0 28 0 0 28.4 0 0
          28.8 0 0 29.2 0 0 29.6 0 0 30 0 0
          30.4 0 0 30.8 0 0 31.2 0 0 31.6 0 0
          32 0 0 32.4 0 0 32.8 0 0 33.2 0 0
          33.6 0 0 34 0 0 34.4 0 0 34.8 0 0
          35.2 0 0 35.6 0 0 36 0 0 36.4 0 0
          36.8 0 0 37.2 0 0 37.6 0 0 38 0 0
          38.4 0 0 38.8 0 0 39.2 0 0 39.6 0 0
          40 0 0 40.4 0 0 40.8 0 0 41.2 0 0
          41.6 0 0 42 0 0 42.4 0 0 42.8 0 0
          43.2 0 0 43.6 0 0 44 0 0 44.4 0 0
          44.8 0 0 45.2 0 0 45.6 0 0 46 0 0
          46.4 0 0 46.8 0 0 47.2 0 0 47.6 0 0
          48 0 0 48.4 0 0 48.8 0 0 49.2 0 0
          49.6 0 0 50 0 0 50.4 0 0 50.8 0 0
          51.2 0 0 51.6 0 0 52 0 0 52.4 0 0
          52.8 0 0 53.2 0 0 53.6 0 0 54 0 0
          54.4 0 0 54.8 0 0 55.2 0 0 55.6 0 0
          56 0 0 56.4 0 0 56.8 0 0 57.2 0 0
          57.6 0 0 58 0 0 58.4 0 0 58.8 0 0
          59.2 0 0 59.6 0 0 60 0 0 60.4 0 0
          60.8 0 0 61.2 0 0 61.6 0 0 62 0 0
          62.4 0 0 62.8 0 0 63.2 0 0 63.6 0 0
          64 0 0 64.4 0 0 64.8 0 0 65.2 0 0
          65.6 0 0 66 0 0 66.4 0 0 66.8 0 0
          67.2 0 0 67.6 0 0 68 0 0 68.4 0 0
          68.8 0 0 69.2 0 0 69.6 0 0 70 0 0