<?xml version="1.0"?>
<VTKFile type="PolyData" version="0.1" byte_order="LittleEndian">
  <PolyData>
    <Piece NumberOfLines="250" NumberOfPoints="251">
      <PointData Scalars="pressure_w">
        <DataArray type="Float32" Name="pressure_w" NumberOfComponents="1" format="ascii">
          261924 261900 261845 261770 261679 261576 261461 261337 261203 261060 260909 260751
          260586 260413 260234 260048 259855 259657 259452 259242 259026 258804 258577 258344
          258106 257863 257615 257361 257103 256839 256571 256298 256020 255737 255450 255158
          254861 254560 254254 253944 253630 253311 252988 252661 252329 251993 251652 251308
          250959 250607 250250 249889 249524 249154 248781 248404 248023 247638 247249 246855
          246458 246058 245653 245244 244831 244415 243995 243571 243143 242711 242276 241836
          241393 240946 240496 240041 239583 239122 238656 238187 237714 237237 236757 236273
          235785 235294 234799 234300 233798 233292 232782 232269 231752 231232 230707 230180
          229648 229113 228574 228032 227486 226936 226383 225826 225266 224702 224134 223563
          222988 222410 221828 221242 220652 220060 219463 218863 218259 217651 217040 216426
          215807 215185 214560 213930 213298 212661 212021 211377 210729 210078 209423 208765
          208103 207437 206767 206094 205417 204736 204052 203364 202672 201976 201277 200574
          199867 199156 198442 197724 197002 196276 195546 194813 194076 193334 192590 191841
          191088 190332 189571 188807 188038 187266 186490 185710 184926 184138 183346 182550
          181750 180946 180138 179325 178509 177689 176864 176036 175203 174366 173525 172679
          171830 170976 170118 169256 168389 167518 166643 165763 164879 163990 163098 162200
          161298 160392 159481 158566 157646 156721 155792 154858 153919 152976 152028 151075
          150117 149155 148187 147215 146238 145256 144268 143276 142278 141276 140268 139255
          138237 137213 136184 135150 134110 133064 132014 130957 129895 128827 127753 126674
          125588 124497 123400 122296 121187 120071 118949 117821 116686 115544 114396 113242
          112080 110912 109737 108554 107365 106168 104964 103753 102534 101315 100165
        </DataArray>
        <DataArray type="Float32" Name="pressure_n" NumberOfComponents="1" format="ascii">
          264432 264345 264247 264138 264021 263895 263761 263620 263471 263315 263152 262983
          262807 262625 262437 262243 262044 261838 261627 261410 261188 260961 260728 260490
          260248 260000 259747 259489 259226 258959 258687 258410 258128 257842 257552 257257
          256957 256653 256344 256032 255714 255393 255067 254737 254403 254064 253722 253375
          253024 252669 252310 251947 251580 251209 250834 250455 250072 249685 249294 248899
          248501 248098 247692 247281 246867 246449 246027 245602 245173 244739 244303 243862
          243418 242969 242518 242062 241603 241140 240673 240203 239728 239251 238769 238284
          237795 237303 236807 236307 235804 235297 234786 234272 233754 233233 232708 232179
          231647 231111 230571 230028 229481 228931 228377 227819 227258 226693 226125 225553
          224977 224398 223815 223229 222639 222045 221448 220847 220243 219635 219023 218408
          217789 217166 216540 215910 215277 214640 213999 213355 212707 212055 211400 210741
          210078 209412 208742 208068 207390 206709 206024 205336 204644 203948 203248 202544
          201837 201126 200412 199693 198971 198245 197515 196781 196044 195302 194557 193808
          193055 192298 191538 190773 190004 189232 188456 187676 186891 186103 185311 184515
          183714 182910 182102 181290 180473 179653 178828 177999 177166 176329 175488 174643
          173793 172939 172081 171219 170352 169481 168606 167726 166842 165954 165061 164164
          163262 162356 161445 160530 159610 158685 157756 156823 155884 154941 153993 153040
          152083 151120 150153 149181 148204 147222 146235 145243 144246 143243 142236 141223
          140205 139182 138153 137119 136080 135035 133984 132928 131867 130799 129726 128647
          127562 126472 125375 124272 123163 122048 120926 119799 118664 117524 116376 115223
          114062 112894 111720 110538 109350 108154 106951 105740 104521 103281 101877
        </DataArray>
        <DataArray type="Float32" Name="density_w" NumberOfComponents="1" format="ascii">
          1000 1000 1000 1000 1000 1000 1000 1000 1000 1000 1000 1000
          1000 1000 1000 1000 1000 1000 1000 1000 1000 1000 1000 1000
          1000 1000 1000 1000 1000 1000 1000 1000 1000 1000 1000 1000
          1000 1000 1000 1000 1000 1000 1000 1000 1000 1000 1000 1000
          1000 1000 1000 1000 1000 1000 1000 1000 1000 1000 1000 1000
          1000 1000 1000 1000 1000 1000 1000 1000 1000 1000 1000 1000
          1000 1000 1000 1000 1000 1000 1000 1000 1000 1000 1000 1000
          1000 1000 1000 1000 1000 1000 1000 1000 1000 1000 1000 1000
          1000 1000 1000 1000 1000 1000 1000 1000 1000 1000 1000 1000
          1000 1000 1000 1000 1000 1000 1000 1000 1000 1000 1000 1000
          1000 1000 1000 1000 1000 1000 1000 1000 1000 1000 1000 1000
          1000 1000 1000 1000 1000 1000 1000 1000 1000 1000 1000 1000
          1000 1000 1000 1000 1000 1000 1000 1000 1000 1000 1000 1000
          1000 1000 1000 1000 1000 1000 1000 1000 1000 1000 1000 1000
          1000 1000 1000 1000 1000 1000 1000 1000 1000 1000 1000 1000
          1000 1000 1000 1000 1000 1000 1000 1000 1000 1000 1000 1000
          1000 1000 1000 1000 1000 1000 1000 1000 1000 1000 1000 1000
          1000 1000 1000 1000 1000 1000 1000 1000 1000 1000 1000 1000
          1000 1000 1000 1000 1000 1000 1000 1000 1000 1000 1000 1000
          1000 1000 1000 1000 1000 1000 1000 1000 1000 1000 1000 1000
          1000 1000 1000 1000 1000 1000 1000 1000 1000 1000 1000
        </DataArray>
        <DataArray type="Float32" Name="density_n" NumberOfComponents="1" format="ascii">
          3.07269 3.07168 3.07054 3.06928 3.06791 3.06645 3.06489 3.06325 3.06152 3.05971 3.05782 3.05585
          3.05381 3.0517 3.04951 3.04726 3.04494 3.04255 3.04009 3.03758 3.035 3.03236 3.02965 3.02689
          3.02407 3.02119 3.01825 3.01525 3.0122 3.00909 3.00593 3.00271 2.99944 2.99612 2.99274 2.98931
          2.98583 2.9823 2.97871 2.97508 2.97139 2.96766 2.96387 2.96004 2.95615 2.95222 2.94824 2.94421
          2.94013 2.93601 2.93184 2.92762 2.92335 2.91904 2.91468 2.91028 2.90583 2.90133 2.89679 2.8922
          2.88757 2.88289 2.87817 2.8734 2.86859 2.86373 2.85883 2.85388 2.8489 2.84386 2.83879 2.83367
          2.8285 2.82329 2.81804 2.81275 2.80741 2.80203 2.79661 2.79114 2.78564 2.78008 2.77449 2.76885
          2.76317 2.75745 2.75169 2.74588 2.74003 2.73414 2.72821 2.72223 2.71622 2.71016 2.70405 2.69791
          2.69173 2.6855 2.67923 2.67292 2.66656 2.66017 2.65373 2.64725 2.64073 2.63417 2.62756 2.62092
          2.61423 2.6075 2.60073 2.59391 2.58706 2.58016 2.57322 2.56624 2.55921 2.55215 2.54504 2.53789
          2.5307 2.52346 2.51619 2.50887 2.50151 2.49411 2.48666 2.47917 2.47164 2.46407 2.45645 2.4488
          2.4411 2.43335 2.42557 2.41774 2.40987 2.40195 2.394 2.386 2.37795 2.36986 2.36173 2.35356
          2.34534 2.33708 2.32877 2.32043 2.31203 2.3036 2.29511 2.28659 2.27802 2.2694 2.26074 2.25204
          2.24329 2.2345 2.22566 2.21677 2.20784 2.19887 2.18985 2.18078 2.17167 2.16251 2.15331 2.14405
          2.13476 2.12541 2.11602 2.10658 2.09709 2.08756 2.07798 2.06835 2.05867 2.04894 2.03917 2.02934
          2.01947 2.00955 1.99958 1.98956 1.97949 1.96937 1.9592 1.94897 1.9387 1.92838 1.918 1.90758
          1.8971 1.88657 1.87599 1.86535 1.85466 1.84392 1.83312 1.82227 1.81137 1.80041 1.78939 1.77832
          1.7672 1.75601 1.74478 1.73348 1.72213 1.71071 1.69925 1.68772 1.67613 1.66448 1.65278 1.64101
          1.62918 1.61729 1.60534 1.59332 1.58124 1.5691 1.55689 1.54462 1.53229 1.51988 1.50741 1.49488
          1.48227 1.46959 1.45685 1.44404 1.43115 1.41819 1.40516 1.39206 1.37888 1.36562 1.35229 1.33888
          1.32539 1.31183 1.29818 1.28445 1.27064 1.25675 1.24276 1.2287 1.21453 1.20012 1.18381
        </DataArray>
        <DataArray type="Float32" Name="saturation_w" NumberOfComponents="1" format="ascii">
          0.346043 0.38629 0.41597 0.439545 0.459073 0.475704 0.490152 0.502895 0.514268 0.524518 0.533831 0.542351
          0.550191 0.557442 0.564178 0.570462 0.576344 0.581867 0.587069 0.591981 0.59663 0.601039 0.605231 0.609222
          0.613029 0.616666 0.620146 0.623481 0.62668 0.629753 0.632707 0.635552 0.638293 0.640937 0.643489 0.645955
          0.64834 0.650648 0.652883 0.655049 0.657149 0.659187 0.661166 0.663088 0.664956 0.666773 0.668541 0.670262
          0.671938 0.67357 0.675161 0.676713 0.678226 0.679703 0.681144 0.682552 0.683927 0.68527 0.686583 0.687866
          0.689121 0.690348 0.691549 0.692724 0.693875 0.695001 0.696104 0.697184 0.698243 0.69928 0.700296 0.701292
          0.702268 0.703226 0.704165 0.705086 0.705989 0.706876 0.707745 0.708598 0.709436 0.710258 0.711065 0.711857
          0.712635 0.713399 0.714149 0.714885 0.715608 0.716319 0.717016 0.717702 0.718375 0.719037 0.719686 0.720325
          0.720952 0.721568 0.722174 0.722769 0.723353 0.723928 0.724492 0.725046 0.725591 0.726126 0.726652 0.727169
          0.727677 0.728175 0.728665 0.729146 0.729619 0.730083 0.730539 0.730986 0.731426 0.731857 0.732281 0.732697
          0.733105 0.733506 0.733899 0.734284 0.734663 0.735034 0.735398 0.735754 0.736104 0.736447 0.736783 0.737112
          0.737434 0.73775 0.738058 0.738361 0.738656 0.738946 0.739228 0.739505 0.739775 0.740038 0.740296 0.740547
          0.740792 0.74103 0.741263 0.741489 0.74171 0.741924 0.742132 0.742334 0.74253 0.742721 0.742905 0.743083
          0.743256 0.743422 0.743583 0.743737 0.743886 0.744029 0.744166 0.744297 0.744422 0.744541 0.744654 0.744762
          0.744863 0.744959 0.745048 0.745132 0.74521 0.745281 0.745347 0.745407 0.74546 0.745508 0.745549 0.745585
          0.745614 0.745637 0.745653 0.745664 0.745668 0.745665 0.745657 0.745642 0.74562 0.745592 0.745557 0.745515
          0.745467 0.745412 0.74535 0.745282 0.745206 0.745123 0.745033 0.744935 0.744831 0.744719 0.744599 0.744472
          0.744337 0.744194 0.744044 0.743885 0.743718 0.743543 0.74336 0.743168 0.742967 0.742757 0.742539 0.742311
          0.742074 0.741827 0.741571 0.741305 0.741029 0.740743 0.740446 0.740139 0.739821 0.739491 0.739151 0.738799
          0.738434 0.738058 0.737669 0.737268 0.736853 0.736425 0.735984 0.735528 0.735058 0.734572 0.734072 0.733556
          0.733023 0.732474 0.731908 0.731324 0.730722 0.730102 0.729473 0.728937 0.729643 0.744306 0.887207
        </DataArray>
        <DataArray type="Float32" Name="saturation_n" NumberOfComponents="1" format="ascii">
          0.653957 0.61371 0.58403 0.560455 0.540927 0.524296 0.509848 0.497105 0.485732 0.475482 0.466169 0.457649
          0.449809 0.442558 0.435822 0.429538 0.423656 0.418133 0.412931 0.408019 0.40337 0.398961 0.394769 0.390778
          0.386971 0.383334 0.379854 0.376519 0.37332 0.370247 0.367293 0.364448 0.361707 0.359063 0.356511 0.354045
          0.35166 0.349352 0.347117 0.344951 0.342851 0.340813 0.338834 0.336912 0.335044 0.333227 0.331459 0.329738
          0.328062 0.32643 0.324839 0.323287 0.321774 0.320297 0.318856 0.317448 0.316073 0.31473 0.313417 0.312134
          0.310879 0.309652 0.308451 0.307276 0.306125 0.304999 0.303896 0.302816 0.301757 0.30072 0.299704 0.298708
          0.297732 0.296774 0.295835 0.294914 0.294011 0.293124 0.292255 0.291401 0.290564 0.289742 0.288935 0.288143
          0.287365 0.286601 0.285852 0.285115 0.284392 0.283681 0.282984 0.282298 0.281625 0.280963 0.280314 0.279675
          0.279048 0.278432 0.277826 0.277231 0.276647 0.276072 0.275508 0.274954 0.274409 0.273874 0.273348 0.272831
          0.272323 0.271825 0.271335 0.270854 0.270381 0.269917 0.269461 0.269014 0.268574 0.268143 0.267719 0.267303
          0.266895 0.266494 0.266101 0.265716 0.265337 0.264966 0.264602 0.264246 0.263896 0.263553 0.263217 0.262888
          0.262566 0.26225 0.261942 0.261639 0.261344 0.261054 0.260772 0.260495 0.260225 0.259962 0.259704 0.259453
          0.259208 0.25897 0.258737 0.258511 0.25829 0.258076 0.257868 0.257666 0.25747 0.257279 0.257095 0.256917
          0.256744 0.256578 0.256417 0.256263 0.256114 0.255971 0.255834 0.255703 0.255578 0.255459 0.255346 0.255238
          0.255137 0.255041 0.254952 0.254868 0.25479 0.254719 0.254653 0.254593 0.25454 0.254492 0.254451 0.254415
          0.254386 0.254363 0.254347 0.254336 0.254332 0.254335 0.254343 0.254358 0.25438 0.254408 0.254443 0.254485
          0.254533 0.254588 0.25465 0.254718 0.254794 0.254877 0.254967 0.255065 0.255169 0.255281 0.255401 0.255528
          0.255663 0.255806 0.255956 0.256115 0.256282 0.256457 0.25664 0.256833 0.257033 0.257243 0.257461 0.257689
          0.257926 0.258173 0.258429 0.258695 0.258971 0.259257 0.259554 0.259861 0.260179 0.260509 0.260849 0.261201
          0.261566 0.261942 0.262331 0.262732 0.263147 0.263575 0.264016 0.264472 0.264942 0.265428 0.265928 0.266444
          0.266977 0.267526 0.268092 0.268676 0.269278 0.269898 0.270527 0.271063 0.270357 0.255694 0.112793
        </DataArray>
        <DataArray type="Float32" Name="relativePerm_w" NumberOfComponents="1" format="ascii">
          0.0391767 0.0537893 0.0666233 0.0781665 0.0886889 0.0983699 0.107339 0.115697 0.123521 0.130874 0.13781 0.144371
          0.150595 0.156514 0.162154 0.16754 0.172693 0.17763 0.182369 0.186923 0.191306 0.19553 0.199603 0.203538
          0.20734 0.21102 0.214583 0.218036 0.221386 0.224637 0.227795 0.230865 0.23385 0.236755 0.239584 0.24234
          0.245027 0.247647 0.250203 0.252697 0.255133 0.257513 0.259839 0.262112 0.264336 0.266511 0.268639 0.270723
          0.272763 0.274761 0.276718 0.278637 0.280517 0.282361 0.284169 0.285942 0.287682 0.289389 0.291064 0.292709
          0.294324 0.29591 0.297467 0.298997 0.3005 0.301977 0.303428 0.304854 0.306256 0.307634 0.30899 0.310322
          0.311632 0.312921 0.314189 0.315435 0.316662 0.317869 0.319056 0.320224 0.321374 0.322505 0.323618 0.324714
          0.325792 0.326853 0.327898 0.328926 0.329938 0.330935 0.331916 0.332881 0.333832 0.334767 0.335689 0.336595
          0.337488 0.338367 0.339232 0.340083 0.340921 0.341746 0.342558 0.343357 0.344144 0.344918 0.34568 0.34643
          0.347167 0.347893 0.348607 0.34931 0.350001 0.35068 0.351349 0.352006 0.352652 0.353288 0.353912 0.354526
          0.35513 0.355722 0.356305 0.356877 0.357439 0.357991 0.358532 0.359064 0.359586 0.360098 0.3606 0.361092
          0.361575 0.362048 0.362512 0.362966 0.363411 0.363846 0.364272 0.364689 0.365096 0.365494 0.365883 0.366263
          0.366634 0.366996 0.367348 0.367692 0.368026 0.368352 0.368668 0.368976 0.369275 0.369564 0.369845 0.370117
          0.37038 0.370634 0.370879 0.371115 0.371343 0.371561 0.371771 0.371971 0.372163 0.372345 0.372519 0.372684
          0.372839 0.372986 0.373123 0.373252 0.373371 0.373481 0.373582 0.373673 0.373756 0.373829 0.373893 0.373947
          0.373991 0.374027 0.374052 0.374068 0.374075 0.374071 0.374058 0.374034 0.374001 0.373958 0.373904 0.37384
          0.373766 0.373682 0.373587 0.373481 0.373365 0.373237 0.373099 0.37295 0.37279 0.372618 0.372434 0.37224
          0.372033 0.371815 0.371584 0.371341 0.371086 0.370819 0.370539 0.370245 0.369939 0.36962 0.369287 0.36894
          0.36858 0.368205 0.367816 0.367412 0.366994 0.36656 0.366111 0.365647 0.365166 0.364669 0.364155 0.363625
          0.363077 0.362512 0.361928 0.361326 0.360706 0.360066 0.359406 0.358726 0.358026 0.357305 0.356562 0.355797
          0.355009 0.354198 0.353363 0.352503 0.351618 0.350709 0.349788 0.349004 0.350037 0.371985 0.646803
        </DataArray>
        <DataArray type="Float32" Name="relativePerm_n" NumberOfComponents="1" format="ascii">
          0.4778 0.423354 0.384921 0.355488 0.331868 0.31231 0.295745 0.281469 0.268994 0.25797 0.248135 0.239291
          0.231283 0.223988 0.217307 0.21116 0.20548 0.200211 0.195308 0.190731 0.186446 0.182423 0.178637 0.175067
          0.171694 0.1685 0.165471 0.162592 0.159853 0.157244 0.154753 0.152373 0.150097 0.147917 0.145826 0.14382
          0.141893 0.140039 0.138256 0.136538 0.134881 0.133283 0.131741 0.13025 0.12881 0.127416 0.126067 0.124761
          0.123495 0.122267 0.121077 0.119921 0.118799 0.117709 0.11665 0.115621 0.114619 0.113645 0.112696 0.111773
          0.110873 0.109997 0.109143 0.10831 0.107498 0.106705 0.105932 0.105178 0.104441 0.103722 0.103019 0.102333
          0.101662 0.101006 0.100365 0.0997383 0.0991254 0.0985258 0.0979393 0.0973653 0.0968037 0.0962539 0.0957158 0.0951889
          0.094673 0.0941677 0.0936728 0.0931881 0.0927132 0.0922479 0.0917921 0.0913453 0.0909075 0.0904784 0.0900578 0.0896455
          0.0892414 0.0888452 0.0884567 0.0880758 0.0877024 0.0873363 0.0869772 0.0866252 0.0862799 0.0859414 0.0856094 0.0852839
          0.0849647 0.0846517 0.0843447 0.0840438 0.0837487 0.0834593 0.0831756 0.0828975 0.0826249 0.0823576 0.0820956 0.0818389
          0.0815873 0.0813407 0.0810991 0.0808624 0.0806306 0.0804035 0.0801811 0.0799633 0.0797502 0.0795415 0.0793373 0.0791375
          0.0789421 0.078751 0.0785641 0.0783815 0.078203 0.0780286 0.0778583 0.077692 0.0775298 0.0773714 0.0772171 0.0770666
          0.07692 0.0767772 0.0766382 0.076503 0.0763716 0.0762439 0.0761198 0.0759995 0.0758828 0.0757698 0.0756604 0.0755546
          0.0754524 0.0753537 0.0752587 0.0751672 0.0750792 0.0749948 0.0749139 0.0748365 0.0747626 0.0746923 0.0746255 0.0745622
          0.0745024 0.0744461 0.0743933 0.0743441 0.0742984 0.0742562 0.0742176 0.0741825 0.074151 0.0741231 0.0740987 0.074078
          0.0740609 0.0740475 0.0740377 0.0740316 0.0740292 0.0740305 0.0740356 0.0740445 0.0740572 0.0740738 0.0740943 0.0741186
          0.074147 0.0741793 0.0742157 0.0742562 0.0743008 0.0743495 0.0744026 0.0744599 0.0745215 0.0745875 0.074658 0.074733
          0.0748126 0.0748969 0.0749859 0.0750797 0.0751784 0.0752821 0.0753908 0.0755046 0.0756237 0.0757482 0.075878 0.0760135
          0.0761546 0.0763014 0.0764542 0.0766129 0.0767779 0.0769491 0.0771268 0.077311 0.077502 0.0776999 0.0779049 0.0781172
          0.0783369 0.0785643 0.0787995 0.0790428 0.0792944 0.0795546 0.0798235 0.0801015 0.0803889 0.0806858 0.0809927 0.0813098
          0.0816375 0.0819762 0.0823261 0.0826878 0.0830615 0.0834472 0.0838396 0.0841745 0.0837332 0.074831 0.0141833
        </DataArray>
        <DataArray type="Float32" Name="porosity" NumberOfComponents="1" format="ascii">
          0.558 0.558 0.558 0.558 0.558 0.558 0.558 0.558 0.558 0.558 0.558 0.558
          0.558 0.558 0.558 0.558 0.558 0.558 0.558 0.558 0.558 0.558 0.558 0.558
          0.558 0.558 0.558 0.558 0.558 0.558 0.558 0.558 0.558 0.558 0.558 0.558
          0.558 0.558 0.558 0.558 0.558 0.558 0.558 0.558 0.558 0.558 0.558 0.558
          0.558 0.558 0.558 0.558 0.558 0.558 0.558 0.558 0.558 0.558 0.558 0.558
          0.558 0.558 0.558 0.558 0.558 0.558 0.558 0.558 0.558 0.558 0.558 0.558
          0.558 0.558 0.558 0.558 0.558 0.558 0.558 0.558 0.558 0.558 0.558 0.558
          0.558 0.558 0.558 0.558 0.558 0.558 0.558 0.558 0.558 0.558 0.558 0.558
          0.558 0.558 0.558 0.558 0.558 0.558 0.558 0.558 0.558 0.558 0.558 0.558
          0.558 0.558 0.558 0.558 0.558 0.558 0.558 0.558 0.558 0.558 0.558 0.558
          0.558 0.558 0.558 0.558 0.558 0.558 0.558 0.558 0.558 0.558 0.558 0.558
          0.558 0.558 0.558 0.558 0.558 0.558 0.558 0.558 0.558 0.558 0.558 0.558
          0.558 0.558 0.558 0.558 0.558 0.558 0.558 0.558 0.558 0.558 0.558 0.558
          0.558 0.558 0.558 0.558 0.558 0.558 0.558 0.558 0.558 0.558 0.558 0.558
          0.558 0.558 0.558 0.558 0.558 0.558 0.558 0.558 0.558 0.558 0.558 0.558
          0.558 0.558 0.558 0.558 0.558 0.558 0.558 0.558 0.558 0.558 0.558 0.558
          0.558 0.558 0.558 0.558 0.558 0.558 0.558 0.558 0.558 0.558 0.558 0.558
          0.558 0.558 0.558 0.558 0.558 0.558 0.558 0.558 0.558 0.558 0.558 0.558
          0.558 0.558 0.558 0.558 0.558 0.558 0.558 0.558 0.558 0.558 0.558 0.558
          0.558 0.558 0.558 0.558 0.558 0.558 0.558 0.558 0.558 0.558 0.558 0.558
          0.558 0.558 0.558 0.558 0.558 0.558 0.558 0.558 0.558 0.558 0.558
        </DataArray>
        <DataArray type="Float32" Name="filterVelocity_w" NumberOfComponents="1" format="ascii">
          0.00013608 0.000352643 0.000607086 0.000890564 0.00118331 0.00148039 0.0017797 0.00208012 0.00238094 0.0026817 0.00298207 0.00328183
          0.00358081 0.00387888 0.00417596 0.00447198 0.0047669 0.00506069 0.00535333 0.00564482 0.00593515 0.00622432 0.00651234 0.00679922
          0.00708498 0.00736963 0.00765319 0.00793567 0.0082171 0.00849749 0.00877687 0.00905525 0.00933265 0.00960909 0.00988459 0.0101592
          0.0104329 0.0107057 0.0109776 0.0112487 0.011519 0.0117885 0.0120572 0.0123251 0.0125922 0.0128587 0.0131244 0.0133893
          0.0136536 0.0139172 0.0141802 0.0144425 0.0147042 0.0149652 0.0152256 0.0154855 0.0157447 0.0160034 0.0162615 0.016519
          0.0167761 0.0170326 0.0172886 0.017544 0.017799 0.0180535 0.0183075 0.0185611 0.0188142 0.0190668 0.019319 0.0195708
          0.0198222 0.0200731 0.0203237 0.0205738 0.0208236 0.0210729 0.0213219 0.0215706 0.0218189 0.0220668 0.0223144 0.0225616
          0.0228085 0.0230551 0.0233013 0.0235473 0.0237929 0.0240383 0.0242833 0.0245281 0.0247726 0.0250168 0.0252607 0.0255043
          0.0257477 0.0259909 0.0262338 0.0264764 0.0267188 0.026961 0.0272029 0.0274446 0.0276861 0.0279274 0.0281684 0.0284092
          0.0286499 0.0288903 0.0291305 0.0293706 0.0296104 0.0298501 0.0300896 0.0303289 0.030568 0.0308069 0.0310457 0.0312843
          0.0315228 0.0317611 0.0319992 0.0322372 0.0324751 0.0327128 0.0329503 0.0331878 0.033425 0.0336622 0.0338992 0.0341361
          0.0343729 0.0346095 0.034846 0.0350824 0.0353187 0.0355549 0.0357909 0.0360269 0.0362627 0.0364985 0.0367341 0.0369696
          0.0372051 0.0374404 0.0376756 0.0379108 0.0381458 0.0383808 0.0386157 0.0388505 0.0390852 0.0393198 0.0395543 0.0397888
          0.0400232 0.0402575 0.0404917 0.0407258 0.0409599 0.0411939 0.0414278 0.0416616 0.0418954 0.0421291 0.0423627 0.0425963
          0.0428298 0.0430632 0.0432965 0.0435298 0.043763 0.0439961 0.0442292 0.0444622 0.0446951 0.0449279 0.0451607 0.0453934
          0.045626 0.0458586 0.046091 0.0463234 0.0465557 0.046788 0.0470201 0.0472522 0.0474842 0.0477161 0.0479479 0.0481796
          0.0484113 0.0486428 0.0488743 0.0491056 0.0493368 0.0495679 0.049799 0.0500299 0.0502606 0.0504913 0.0507218 0.0509522
          0.0511825 0.0514126 0.0516425 0.0518724 0.052102 0.0523315 0.0525608 0.0527899 0.0530189 0.0532476 0.0534761 0.0537045
          0.0539326 0.0541604 0.0543881 0.0546154 0.0548426 0.0550694 0.0552959 0.0555222 0.0557481 0.0559737 0.0561989 0.0564238
          0.0566483 0.0568724 0.0570961 0.0573193 0.0575421 0.0577644 0.0579862 0.0582075 0.0584282 0.0586483 0.0588678 0.0590867
          0.0593049 0.0595224 0.0597392 0.0599551 0.0601702 0.0603845 0.0605978 0.0608098 0.0610174 0.0612003 0.0612811
        </DataArray>
        <DataArray type="Float32" Name="filterVelocity_n" NumberOfComponents="1" format="ascii">
          0.325582 0.325747 0.326066 0.326371 0.326666 0.326956 0.327242 0.327526 0.32781 0.328094 0.32838 0.328668
          0.328958 0.329252 0.329548 0.329849 0.330153 0.330462 0.330775 0.331092 0.331415 0.331742 0.332073 0.33241
          0.332752 0.333099 0.333451 0.333808 0.334171 0.334539 0.334913 0.335292 0.335676 0.336066 0.336462 0.336863
          0.33727 0.337683 0.338101 0.338525 0.338955 0.339391 0.339833 0.34028 0.340734 0.341194 0.341659 0.342131
          0.342609 0.343093 0.343583 0.344079 0.344582 0.345091 0.345606 0.346127 0.346655 0.34719 0.347731 0.348279
          0.348833 0.349394 0.349961 0.350536 0.351117 0.351705 0.3523 0.352902 0.35351 0.354126 0.35475 0.35538
          0.356018 0.356662 0.357315 0.357975 0.358642 0.359317 0.359999 0.360689 0.361387 0.362093 0.362807 0.363529
          0.364259 0.364997 0.365743 0.366498 0.367261 0.368033 0.368813 0.369602 0.370399 0.371206 0.372021 0.372846
          0.37368 0.374523 0.375375 0.376237 0.377108 0.377989 0.37888 0.379781 0.380691 0.381612 0.382544 0.383485
          0.384437 0.3854 0.386373 0.387358 0.388353 0.38936 0.390378 0.391407 0.392448 0.393501 0.394565 0.395642
          0.396731 0.397833 0.398947 0.400073 0.401213 0.402366 0.403532 0.404711 0.405904 0.407111 0.408332 0.409568
          0.410818 0.412082 0.413361 0.414656 0.415966 0.417291 0.418632 0.41999 0.421363 0.422753 0.42416 0.425584
          0.427026 0.428485 0.429962 0.431457 0.432971 0.434504 0.436055 0.437627 0.439218 0.440829 0.44246 0.444113
          0.445786 0.447482 0.449199 0.450938 0.4527 0.454486 0.456295 0.458128 0.459985 0.461868 0.463775 0.465709
          0.467669 0.469656 0.47167 0.473712 0.475783 0.477883 0.480012 0.482172 0.484362 0.486584 0.488838 0.491125
          0.493445 0.4958 0.498189 0.500614 0.503076 0.505575 0.508112 0.510687 0.513303 0.51596 0.518658 0.521399
          0.524183 0.527012 0.529887 0.532808 0.535778 0.538796 0.541865 0.544986 0.548159 0.551387 0.55467 0.55801
          0.561409 0.564867 0.568388 0.571972 0.57562 0.579336 0.58312 0.586975 0.590903 0.594905 0.598984 0.603142
          0.607382 0.611705 0.616115 0.620614 0.625205 0.62989 0.634673 0.639557 0.644545 0.64964 0.654847 0.660168
          0.665608 0.67117 0.67686 0.682681 0.688639 0.694737 0.700982 0.707379 0.713934 0.720652 0.72754 0.734605
          0.741854 0.749294 0.756933 0.764779 0.772842 0.781131 0.789655 0.798427 0.807463 0.816849 0.821617
        </DataArray>
        <DataArray type="Float32" Name="temperature" NumberOfComponents="1" format="ascii">
          299.75 299.75 299.75 299.75 299.75 299.75 299.75 299.75 299.75 299.75 299.75 299.75
          299.75 299.75 299.75 299.75 299.75 299.75 299.75 299.75 299.75 299.75 299.75 299.75
          299.75 299.75 299.75 299.75 299.75 299.75 299.75 299.75 299.75 299.75 299.75 299.75
          299.75 299.75 299.75 299.75 299.75 299.75 299.75 299.75 299.75 299.75 299.75 299.75
          299.75 299.75 299.75 299.75 299.75 299.75 299.75 299.75 299.75 299.75 299.75 299.75
          299.75 299.75 299.75 299.75 299.75 299.75 299.75 299.75 299.75 299.75 299.75 299.75
          299.75 299.75 299.75 299.75 299.75 299.75 299.75 299.75 299.75 299.75 299.75 299.75
          299.75 299.75 299.75 299.75 299.75 299.75 299.75 299.75 299.75 299.75 299.75 299.75
          299.75 299.75 299.75 299.75 299.75 299.75 299.75 299.75 299.75 299.75 299.75 299.75
          299.75 299.75 299.75 299.75 299.75 299.75 299.75 299.75 299.75 299.75 299.75 299.75
          299.75 299.75 299.75 299.75 299.75 299.75 299.75 299.75 299.75 299.75 299.75 299.75
          299.75 299.75 299.75 299.75 299.75 299.75 299.75 299.75 299.75 299.75 299.75 299.75
          299.75 299.75 299.75 299.75 299.75 299.75 299.75 299.75 299.75 299.75 299.75 299.75
          299.75 299.75 299.75 299.75 299.75 299.75 299.75 299.75 299.75 299.75 299.75 299.75
          299.75 299.75 299.75 299.75 299.75 299.75 299.75 299.75 299.75 299.75 299.75 299.75
          299.75 299.75 299.75 299.75 299.75 299.75 299.75 299.75 299.75 299.75 299.75 299.75
          299.75 299.75 299.75 299.75 299.75 299.75 299.75 299.75 299.75 299.75 299.75 299.75
          299.75 299.75 299.75 299.75 299.75 299.75 299.75 299.75 299.75 299.75 299.75 299.75
          299.75 299.75 299.75 299.75 299.75 299.75 299.75 299.75 299.75 299.75 299.75 299.75
          299.75 299.75 299.75 299.75 299.75 299.75 299.75 299.75 299.75 299.75 299.75 299.75
          299.75 299.75 299.75 299.75 299.75 299.75 299.75 299.75 299.75 299.75 299.75
        </DataArray>
      </PointData>
      <Points>
        <DataArray type="Float32" Name="Coordinates" NumberOfComponents="3" format="ascii">
          0 0 0 0.4 0 0 0.8 0 0 1.2 0 0
          1.6 0 0 2 0 0 2.4 0 0 2.8 0 0
          3.2 0 0 3.6 0 0 4 0 0 4.4 0 0
          4.8 0 0 5.2 0 0 5.6 0 0 6 0 0
          6.4 0 0 6.8 0 0 7.2 0 0 7.6 0 0
          8 0 0 8.4 0 0 8.8 0 0 9.2 0 0
          9.6 0 0 10 0 0 10.4 0 0 10.8 0 0
          11.2 0 0 11.6 0 0 12 0 0 12.4 0 0
          12.8 0 0 13.2 0 0 13.6 0 0 14 0 0
          14.4 0 0 14.8 0 0 15.2 0 0 15.6 0 0
          16 0 0 16.4 0 0 16.8 0 0 17.2 0 0
          17.6 0 0 18 0 0 18.4 0 0 18.8 0 0
          19.2 0 0 19.6 0 0 20 0 0 20.4 0 0
          20.8 0 0 21.2 0 0 21.6 0 0 22 0 0
          22.4 0 0 22.8 0 0 23.2 0 0 23.6 0 0
          24 0 0 24.4 0 0 24.8 0 0 25.2 0 0
          25.6 0 0 26 0 0 26.4 0 0 26.8 0 0
          27.2 0 0 27.6 0 0 28 0 0 28.4 0 0
          28.8 0 0 29.2 0 0 29.6 0 0 30 0 0
          30.4 0 0 30.8 0 0 31.2 0 0 31.6 0 0
          32 0 0 32.4 0 0 32.8 0 0 33.2 0 0
          33.6 0 0 34 0 0 34.4 0 0 34.8 0 0
          35.2 0 0 35.6 0 0 36 0 0 36.4 0 0
          36.8 0 0 37.2 0 0 37.6 0 0 38 0 0
          38.4 0 0 38.8 0 0 39.2 0 0 39.6 0 0
          40 0 0 40.4 0 0 40.8 0 0 41.2 0 0
          41.6 0 0 42 0 0 42.4 0 0 42.8 0 0
          43.2 0 0 43.6 0 0 44 0 0 44.4 0 0
          44.8 0 0 45.2 0 0 45.6 0 0 46 0 0
          46.4 0 0 46.8 0 0 47.2 0 0 47.6 0 0
          48 0 0 48.4 0 0 48.8 0 0 49.2 0 0
          49.6 0 0 50 0 0 50.4 0 0 50.8 0 0
          51.2 0 0 51.6 0 0 52 0 0 52.4 0 0
          52.8 0 0 53.2 0 0 53.6 0 0 54 0 0
          54.4 0 0 54.8 0 0 55.2 0 0 55.6 0 0
          56 0 0 56.4 0 0 56.8 0 0 57.2 0 0
          57.6 0 0 58 0 0 58.4 0 0 58.8 0 0
          59.2 0 0 59.6 0 0 60 0 0 60.4 0 0
          60.8 0 0 61.2 0 0 61.6 0 0 62 0 0
          62.4 0 0 62.8 0 0 63.2 0 0 63.6 0 0
          64 0 0 64.4 0 0 64.8 0 0 65.2 0 0
          65.6 0 0 66 0 0 66.4 0 0 66.8 0 0
          67.2 0 0 67.6 0 0 68 0 0 68.4 0 0