<?xml version="1.0"?>
<VTKFile type="PolyData" version="0.1" byte_order="LittleEndian">
  <PolyData>
    <Piece NumberOfLines="250" NumberOfPoints="251">
      <PointData Scalars="pressure_w">
        <DataArray type="Float32" Name="pressure_w" NumberOfComponents="1" format="ascii">
          262304 262280 262225 262150 262060 261956 261842 261717 261583 261440 261290 261131
          260966 260793 260613 260427 260235 260036 259832 259621 259405 259183 258956 258723
          258485 258241 257993 257739 257481 257217 256948 256675 256397 256114 255826 255534
          255237 254936 254630 254320 254005 253686 253362 253035 252703 252366 252026 251681
          251332 250979 250621 250260 249895 249525 249151 248774 248392 248007 247617 247223
          246826 246425 246019 245610 245197 244780 244359 243935 243506 243074 242638 242198
          241754 241307 240856 240401 239942 239480 239014 238544 238070 237593 237112 236627
          236139 235647 235151 234651 234148 233642 233131 232617 232099 231578 231053 230524
          229992 229456 228916 228373 227826 227276 226722 226164 225603 225038 224469 223897
          223321 222742 222158 221572 220981 220387 219790 219188 218583 217975 217363 216747
          216127 215504 214877 214247 213613 212975 212334 211689 211040 210387 209731 209071
          208408 207741 207070 206395 205717 205035 204349 203659 202966 202269 201568 200863
          200155 199443 198727 198007 197284 196556 195825 195090 194351 193609 192862 192112
          191357 190599 189837 189071 188301 187527 186749 185967 185181 184391 183597 182799
          181997 181191 180381 179567 178749 177926 177100 176269 175434 174595 173752 172904
          172053 171197 170337 169472 168603 167730 166852 165970 165084 164193 163298 162398
          161494 160585 159672 158754 157831 156904 155972 155036 154095 153149 152198 151242
          150282 149317 148346 147371 146391 145406 144416 143420 142420 141414 140403 139387
          138366 137339 136307 135269 134226 133178 132124 131064 129998 128927 127850 126767
          125678 124583 123482 122375 121262 120142 119017 117884 116746 115600 114449 113290
          112124 110952 109773 108586 107393 106192 104983 103767 102545 101321 100166
        </DataArray>
        <DataArray type="Float32" Name="pressure_n" NumberOfComponents="1" format="ascii">
          264812 264725 264626 264518 264401 264275 264141 263999 263850 263695 263532 263363
          263187 263005 262817 262623 262423 262217 262006 261789 261567 261340 261107 260869
          260626 260378 260125 259867 259604 259336 259064 258787 258505 258219 257928 257633
          257333 257028 256720 256407 256089 255767 255441 255111 254776 254438 254095 253748
          253396 253041 252682 252318 251951 251579 251204 250824 250441 250053 249662 249267
          248868 248465 248058 247647 247232 246814 246392 245965 245536 245102 244664 244223
          243778 243330 242877 242421 241961 241497 241030 240559 240084 239606 239124 238638
          238148 237655 237158 236658 236154 235646 235135 234620 234101 233579 233053 232523
          231990 231453 230913 230369 229821 229270 228715 228156 227594 227029 226459 225886
          225310 224730 224146 223558 222967 222373 221774 221172 220567 219958 219345 218728
          218108 217485 216857 216226 215592 214953 214311 213666 213016 212364 211707 211047
          210383 209715 209044 208368 207690 207007 206321 205631 204937 204240 203539 202834
          202125 201413 200696 199976 199252 198525 197793 197058 196319 195576 194829 194078
          193324 192565 191803 191036 190266 189492 188714 187932 187146 186356 185562 184764
          183961 183155 182345 181531 180712 179890 179063 178232 177397 176558 175715 174868
          174016 173160 172299 171435 170566 169693 168815 167933 167047 166156 165261 164361
          163457 162548 161635 160717 159795 158868 157936 157000 156059 155113 154162 153207
          152247 151282 150312 149337 148357 147372 146382 145387 144387 143381 142371 141355
          140334 139308 138276 137239 136196 135148 134094 133035 131970 130899 129822 128740
          127651 126557 125457 124350 123238 122119 120993 119862 118724 117579 116428 115270
          114105 112934 111755 110570 109377 108177 106969 105754 104530 103286 101878
        </DataArray>
        <DataArray type="Float32" Name="density_w" NumberOfComponents="1" format="ascii">
          1000 1000 1000 1000 1000 1000 1000 1000 1000 1000 1000 1000
          1000 1000 1000 1000 1000 1000 1000 1000 1000 1000 1000 1000
          1000 1000 1000 1000 1000 1000 1000 1000 1000 1000 1000 1000
          1000 1000 1000 1000 1000 1000 1000 1000 1000 1000 1000 1000
          1000 1000 1000 1000 1000 1000 1000 1000 1000 1000 1000 1000
          1000 1000 1000 1000 1000 1000 1000 1000 1000 1000 1000 1000
          1000 1000 1000 1000 1000 1000 1000 1000 1000 1000 1000 1000
          1000 1000 1000 1000 1000 1000 1000 1000 1000 1000 1000 1000
          1000 1000 1000 1000 1000 1000 1000 1000 1000 1000 1000 1000
          1000 1000 1000 1000 1000 1000 1000 1000 1000 1000 1000 1000
          1000 1000 1000 1000 1000 1000 1000 1000 1000 1000 1000 1000
          1000 1000 1000 1000 1000 1000 1000 1000 1000 1000 1000 1000
          1000 1000 1000 1000 1000 1000 1000 1000 1000 1000 1000 1000
          1000 1000 1000 1000 1000 1000 1000 1000 1000 1000 1000 1000
          1000 1000 1000 1000 1000 1000 1000 1000 1000 1000 1000 1000
          1000 1000 1000 1000 1000 1000 1000 1000 1000 1000 1000 1000
          1000 1000 1000 1000 1000 1000 1000 1000 1000 1000 1000 1000
          1000 1000 1000 1000 1000 1000 1000 1000 1000 1000 1000 1000
          1000 1000 1000 1000 1000 1000 1000 1000 1000 1000 1000 1000
          1000 1000 1000 1000 1000 1000 1000 1000 1000 1000 1000 1000
          1000 1000 1000 1000 1000 1000 1000 1000 1000 1000 1000
        </DataArray>
        <DataArray type="Float32" Name="density_n" NumberOfComponents="1" format="ascii">
          3.0771 3.07609 3.07495 3.07369 3.07233 3.07086 3.06931 3.06766 3.06593 3.06412 3.06223 3.06026
          3.05822 3.05611 3.05392 3.05167 3.04934 3.04695 3.0445 3.04198 3.0394 3.03676 3.03405 3.03129
          3.02846 3.02558 3.02264 3.01964 3.01659 3.01348 3.01031 3.00709 3.00382 3.00049 2.99711 2.99368
          2.9902 2.98666 2.98307 2.97943 2.97574 2.97201 2.96822 2.96438 2.96049 2.95655 2.95257 2.94854
          2.94446 2.94033 2.93615 2.93193 2.92766 2.92334 2.91898 2.91457 2.91011 2.90561 2.90106 2.89647
          2.89183 2.88715 2.88242 2.87765 2.87283 2.86797 2.86306 2.85811 2.85311 2.84807 2.84299 2.83786
          2.83269 2.82748 2.82222 2.81692 2.81158 2.80619 2.80076 2.79528 2.78977 2.78421 2.77861 2.77296
          2.76727 2.76154 2.75577 2.74996 2.7441 2.7382 2.73226 2.72627 2.72025 2.71418 2.70807 2.70191
          2.69572 2.68948 2.6832 2.67688 2.67051 2.66411 2.65766 2.65117 2.64464 2.63806 2.63145 2.62479
          2.61809 2.61135 2.60456 2.59774 2.59087 2.58396 2.57701 2.57001 2.56298 2.5559 2.54878 2.54162
          2.53441 2.52716 2.51987 2.51254 2.50517 2.49775 2.49029 2.48279 2.47524 2.46766 2.46003 2.45235
          2.44464 2.43688 2.42908 2.42123 2.41335 2.40542 2.39744 2.38942 2.38136 2.37326 2.36511 2.35692
          2.34869 2.34041 2.33208 2.32372 2.31531 2.30685 2.29835 2.28981 2.28122 2.27258 2.26391 2.25518
          2.24641 2.2376 2.22874 2.21984 2.21089 2.20189 2.19285 2.18376 2.17463 2.16545 2.15622 2.14695
          2.13762 2.12826 2.11884 2.10938 2.09987 2.09031 2.08071 2.07105 2.06135 2.0516 2.0418 2.03195
          2.02206 2.01211 2.00211 1.99207 1.98197 1.97182 1.96163 1.95138 1.94108 1.93073 1.92033 1.90987
          1.89936 1.88881 1.87819 1.86753 1.85681 1.84604 1.83521 1.82433 1.8134 1.80241 1.79136 1.78026
          1.7691 1.75789 1.74661 1.73529 1.7239 1.71245 1.70095 1.68939 1.67777 1.66609 1.65434 1.64254
          1.63068 1.61875 1.60676 1.59471 1.58259 1.57041 1.55817 1.54586 1.53348 1.52104 1.50853 1.49595
          1.4833 1.47059 1.4578 1.44494 1.43202 1.41901 1.40594 1.39279 1.37957 1.36627 1.35289 1.33944
          1.3259 1.31229 1.29859 1.28482 1.27096 1.25701 1.24298 1.22886 1.21464 1.20018 1.18382
        </DataArray>
        <DataArray type="Float32" Name="saturation_w" NumberOfComponents="1" format="ascii">
          0.346399 0.386645 0.416322 0.439896 0.459425 0.476055 0.490503 0.503245 0.514617 0.524866 0.534178 0.542697
          0.550535 0.557785 0.56452 0.570802 0.576682 0.582204 0.587404 0.592315 0.596962 0.60137 0.60556 0.60955
          0.613356 0.616992 0.620471 0.623804 0.627002 0.630074 0.633028 0.635872 0.638612 0.641255 0.643807 0.646272
          0.648656 0.650963 0.653198 0.655363 0.657463 0.659501 0.661479 0.663401 0.665269 0.667085 0.668853 0.670573
          0.672249 0.673881 0.675472 0.677023 0.678536 0.680013 0.681454 0.682862 0.684236 0.685579 0.686892 0.688175
          0.68943 0.690658 0.691859 0.693034 0.694185 0.695311 0.696414 0.697494 0.698553 0.69959 0.700606 0.701603
          0.702579 0.703537 0.704476 0.705397 0.706301 0.707188 0.708057 0.708911 0.709749 0.710571 0.711378 0.712171
          0.712949 0.713713 0.714463 0.7152 0.715924 0.716634 0.717333 0.718018 0.718692 0.719354 0.720004 0.720643
          0.721271 0.721887 0.722493 0.723089 0.723674 0.724248 0.724813 0.725368 0.725913 0.726449 0.726976 0.727493
          0.728001 0.7285 0.72899 0.729472 0.729945 0.73041 0.730866 0.731314 0.731754 0.732186 0.732611 0.733027
          0.733436 0.733837 0.734231 0.734617 0.734996 0.735367 0.735732 0.736089 0.73644 0.736783 0.73712 0.737449
          0.737772 0.738088 0.738398 0.738701 0.738997 0.739287 0.73957 0.739847 0.740118 0.740382 0.74064 0.740892
          0.741138 0.741377 0.74161 0.741838 0.742059 0.742274 0.742482 0.742685 0.742882 0.743073 0.743258 0.743437
          0.74361 0.743778 0.743939 0.744094 0.744244 0.744387 0.744525 0.744657 0.744783 0.744903 0.745017 0.745125
          0.745227 0.745323 0.745414 0.745498 0.745577 0.745649 0.745716 0.745776 0.745831 0.745879 0.745921 0.745957
          0.745987 0.746011 0.746028 0.74604 0.746044 0.746043 0.746035 0.746021 0.746 0.745972 0.745938 0.745898
          0.74585 0.745796 0.745735 0.745667 0.745592 0.74551 0.74542 0.745324 0.74522 0.745109 0.74499 0.744863
          0.744729 0.744587 0.744437 0.744279 0.744113 0.743939 0.743756 0.743564 0.743364 0.743155 0.742937 0.74271
          0.742474 0.742228 0.741972 0.741707 0.741431 0.741146 0.740849 0.740543 0.740225 0.739896 0.739556 0.739204
          0.73884 0.738464 0.738075 0.737674 0.737259 0.736831 0.73639 0.735934 0.735464 0.734978 0.734478 0.733961
          0.733428 0.732879 0.732312 0.731728 0.731125 0.730504 0.729874 0.729335 0.730028 0.744603 0.887192
        </DataArray>
        <DataArray type="Float32" Name="saturation_n" NumberOfComponents="1" format="ascii">
          0.653601 0.613355 0.583678 0.560104 0.540575 0.523945 0.509497 0.496755 0.485383 0.475134 0.465822 0.457303
          0.449465 0.442215 0.43548 0.429198 0.423318 0.417796 0.412596 0.407685 0.403038 0.39863 0.39444 0.39045
          0.386644 0.383008 0.379529 0.376196 0.372998 0.369926 0.366972 0.364128 0.361388 0.358745 0.356193 0.353728
          0.351344 0.349037 0.346802 0.344637 0.342537 0.340499 0.338521 0.336599 0.334731 0.332915 0.331147 0.329427
          0.327751 0.326119 0.324528 0.322977 0.321464 0.319987 0.318546 0.317138 0.315764 0.314421 0.313108 0.311825
          0.31057 0.309342 0.308141 0.306966 0.305815 0.304689 0.303586 0.302506 0.301447 0.30041 0.299394 0.298397
          0.297421 0.296463 0.295524 0.294603 0.293699 0.292812 0.291943 0.291089 0.290251 0.289429 0.288622 0.287829
          0.287051 0.286287 0.285537 0.2848 0.284076 0.283366 0.282667 0.281982 0.281308 0.280646 0.279996 0.279357
          0.278729 0.278113 0.277507 0.276911 0.276326 0.275752 0.275187 0.274632 0.274087 0.273551 0.273024 0.272507
          0.271999 0.2715 0.27101 0.270528 0.270055 0.26959 0.269134 0.268686 0.268246 0.267814 0.267389 0.266973
          0.266564 0.266163 0.265769 0.265383 0.265004 0.264632 0.264268 0.263911 0.26356 0.263217 0.26288 0.262551
          0.262228 0.261912 0.261602 0.261299 0.261003 0.260713 0.26043 0.260153 0.259882 0.259618 0.25936 0.259108
          0.258862 0.258623 0.25839 0.258162 0.257941 0.257726 0.257518 0.257315 0.257118 0.256927 0.256742 0.256563
          0.25639 0.256222 0.256061 0.255906 0.255756 0.255613 0.255475 0.255343 0.255217 0.255097 0.254983 0.254875
          0.254773 0.254676 0.254586 0.254502 0.254423 0.254351 0.254284 0.254224 0.254169 0.254121 0.254079 0.254043
          0.254013 0.253989 0.253972 0.253961 0.253956 0.253957 0.253965 0.253979 0.254 0.254028 0.254062 0.254102
          0.25415 0.254204 0.254265 0.254333 0.254408 0.25449 0.25458 0.254676 0.25478 0.254891 0.25501 0.255137
          0.255271 0.255413 0.255563 0.255721 0.255887 0.256061 0.256244 0.256436 0.256636 0.256845 0.257063 0.25729
          0.257526 0.257772 0.258028 0.258293 0.258569 0.258854 0.259151 0.259457 0.259775 0.260104 0.260444 0.260796
          0.26116 0.261536 0.261925 0.262326 0.262741 0.263169 0.26361 0.264066 0.264536 0.265022 0.265522 0.266039
          0.266572 0.267121 0.267688 0.268272 0.268875 0.269496 0.270126 0.270665 0.269972 0.255397 0.112808
        </DataArray>
        <DataArray type="Float32" Name="relativePerm_w" NumberOfComponents="1" format="ascii">
          0.0392927 0.053932 0.0667869 0.0783481 0.0888864 0.0985815 0.107564 0.115933 0.123766 0.131129 0.138073 0.144642
          0.150872 0.156797 0.162443 0.167835 0.172992 0.177934 0.182677 0.187236 0.191622 0.195849 0.199926 0.203863
          0.207669 0.211352 0.214917 0.218373 0.221725 0.224979 0.22814 0.231212 0.234199 0.237107 0.239938 0.242696
          0.245385 0.248006 0.250564 0.253061 0.255499 0.257881 0.260208 0.262483 0.264708 0.266885 0.269015 0.271101
          0.273142 0.275142 0.277102 0.279022 0.280904 0.282749 0.284558 0.286333 0.288075 0.289783 0.291461 0.293107
          0.294723 0.296311 0.29787 0.299401 0.300906 0.302384 0.303837 0.305265 0.306668 0.308048 0.309405 0.310739
          0.31205 0.313341 0.31461 0.315858 0.317086 0.318294 0.319483 0.320653 0.321804 0.322936 0.324051 0.325148
          0.326228 0.327291 0.328337 0.329367 0.330381 0.331378 0.332361 0.333328 0.33428 0.335217 0.33614 0.337048
          0.337942 0.338822 0.339689 0.340542 0.341381 0.342208 0.343021 0.343822 0.34461 0.345386 0.346149 0.3469
          0.347639 0.348366 0.349082 0.349786 0.350478 0.351159 0.351829 0.352488 0.353136 0.353773 0.354399 0.355014
          0.355619 0.356213 0.356797 0.357371 0.357934 0.358487 0.359031 0.359564 0.360087 0.360601 0.361104 0.361598
          0.362082 0.362557 0.363022 0.363478 0.363924 0.364361 0.364788 0.365206 0.365615 0.366015 0.366405 0.366786
          0.367159 0.367522 0.367876 0.368221 0.368557 0.368884 0.369202 0.369511 0.369811 0.370102 0.370384 0.370657
          0.370922 0.371177 0.371424 0.371661 0.37189 0.37211 0.372321 0.372523 0.372716 0.3729 0.373075 0.373241
          0.373398 0.373546 0.373684 0.373814 0.373935 0.374046 0.374148 0.374241 0.374325 0.374399 0.374464 0.37452
          0.374566 0.374602 0.374629 0.374646 0.374654 0.374652 0.374639 0.374617 0.374585 0.374543 0.374491 0.374428
          0.374355 0.374272 0.374178 0.374073 0.373958 0.373831 0.373694 0.373546 0.373387 0.373216 0.373033 0.372839
          0.372634 0.372416 0.372186 0.371945 0.37169 0.371423 0.371144 0.370851 0.370546 0.370227 0.369895 0.369548
          0.369188 0.368814 0.368425 0.368022 0.367604 0.36717 0.366722 0.366257 0.365776 0.365279 0.364766 0.364235
          0.363687 0.363121 0.362537 0.361935 0.361313 0.360673 0.360013 0.359332 0.358631 0.357908 0.357164 0.356397
          0.355608 0.354795 0.353958 0.353096 0.35221 0.351298 0.350374 0.349586 0.3506 0.37244 0.646767
        </DataArray>
        <DataArray type="Float32" Name="relativePerm_n" NumberOfComponents="1" format="ascii">
          0.477308 0.422886 0.384473 0.355056 0.331449 0.311903 0.295348 0.281081 0.268615 0.257599 0.247772 0.238935
          0.230934 0.223645 0.216971 0.21083 0.205155 0.199892 0.194994 0.190422 0.186141 0.182122 0.178341 0.174775
          0.171406 0.168215 0.165189 0.162314 0.159579 0.156972 0.154484 0.152107 0.149833 0.147655 0.145567 0.143563
          0.141638 0.139787 0.138005 0.136289 0.134635 0.133039 0.131498 0.130009 0.12857 0.127178 0.12583 0.124525
          0.12326 0.122034 0.120845 0.119691 0.11857 0.117481 0.116423 0.115395 0.114394 0.113421 0.112473 0.111551
          0.110652 0.109776 0.108923 0.108091 0.10728 0.106488 0.105716 0.104962 0.104226 0.103507 0.102805 0.102119
          0.101449 0.100793 0.100153 0.0995267 0.0989143 0.0983152 0.0977291 0.0971556 0.0965943 0.0960449 0.0955072 0.0949806
          0.094465 0.0939601 0.0934655 0.0929811 0.0925065 0.0920415 0.0915859 0.0911394 0.0907018 0.0902729 0.0898525 0.0894404
          0.0890364 0.0886404 0.0882521 0.0878714 0.0874981 0.0871321 0.0867731 0.0864212 0.0860761 0.0857376 0.0854057 0.0850803
          0.0847611 0.0844481 0.0841412 0.0838403 0.0835452 0.0832558 0.0829722 0.082694 0.0824214 0.0821541 0.0818921 0.0816353
          0.0813836 0.081137 0.0808953 0.0806586 0.0804267 0.0801995 0.079977 0.0797592 0.0795459 0.0793371 0.0791328 0.0789329
          0.0787373 0.078546 0.078359 0.0781762 0.0779975 0.077823 0.0776525 0.077486 0.0773236 0.0771651 0.0770105 0.0768598
          0.076713 0.07657 0.0764308 0.0762953 0.0761636 0.0760356 0.0759114 0.0757908 0.0756738 0.0755605 0.0754508 0.0753447
          0.0752422 0.0751433 0.0750479 0.0749561 0.0748678 0.074783 0.0747018 0.0746241 0.0745499 0.0744792 0.074412 0.0743483
          0.0742881 0.0742315 0.0741783 0.0741287 0.0740826 0.07404 0.074001 0.0739655 0.0739336 0.0739052 0.0738805 0.0738593
          0.0738418 0.0738278 0.0738176 0.073811 0.0738082 0.0738091 0.0738137 0.0738221 0.0738343 0.0738504 0.0738704 0.0738943
          0.0739221 0.0739539 0.0739898 0.0740297 0.0740738 0.0741221 0.0741746 0.0742313 0.0742924 0.0743579 0.0744279 0.0745023
          0.0745814 0.0746651 0.0747535 0.0748468 0.0749449 0.075048 0.0751561 0.0752694 0.075388 0.0755118 0.0756411 0.075776
          0.0759165 0.0760628 0.076215 0.0763732 0.0765376 0.0767083 0.0768854 0.0770691 0.0772595 0.0774569 0.0776614 0.0778732
          0.0780924 0.0783192 0.078554 0.0787968 0.079048 0.0793077 0.0795762 0.0798538 0.0801408 0.0804374 0.080744 0.0810608
          0.0813882 0.0817267 0.0820764 0.0824379 0.0828115 0.0831972 0.0835897 0.0839257 0.0834934 0.074656 0.0141872
        </DataArray>
        <DataArray type="Float32" Name="porosity" NumberOfComponents="1" format="ascii">
          0.558 0.558 0.558 0.558 0.558 0.558 0.558 0.558 0.558 0.558 0.558 0.558
          0.558 0.558 0.558 0.558 0.558 0.558 0.558 0.558 0.558 0.558 0.558 0.558
          0.558 0.558 0.558 0.558 0.558 0.558 0.558 0.558 0.558 0.558 0.558 0.558
          0.558 0.558 0.558 0.558 0.558 0.558 0.558 0.558 0.558 0.558 0.558 0.558
          0.558 0.558 0.558 0.558 0.558 0.558 0.558 0.558 0.558 0.558 0.558 0.558
          0.558 0.558 0.558 0.558 0.558 0.558 0.558 0.558 0.558 0.558 0.558 0.558
          0.558 0.558 0.558 0.558 0.558 0.558 0.558 0.558 0.558 0.558 0.558 0.558
          0.558 0.558 0.558 0.558 0.558 0.558 0.558 0.558 0.558 0.558 0.558 0.558
          0.558 0.558 0.558 0.558 0.558 0.558 0.558 0.558 0.558 0.558 0.558 0.558
          0.558 0.558 0.558 0.558 0.558 0.558 0.558 0.558 0.558 0.558 0.558 0.558
          0.558 0.558 0.558 0.558 0.558 0.558 0.558 0.558 0.558 0.558 0.558 0.558
          0.558 0.558 0.558 0.558 0.558 0.558 0.558 0.558 0.558 0.558 0.558 0.558
          0.558 0.558 0.558 0.558 0.558 0.558 0.558 0.558 0.558 0.558 0.558 0.558
          0.558 0.558 0.558 0.558 0.558 0.558 0.558 0.558 0.558 0.558 0.558 0.558
          0.558 0.558 0.558 0.558 0.558 0.558 0.558 0.558 0.558 0.558 0.558 0.558
          0.558 0.558 0.558 0.558 0.558 0.558 0.558 0.558 0.558 0.558 0.558 0.558
          0.558 0.558 0.558 0.558 0.558 0.558 0.558 0.558 0.558 0.558 0.558 0.558
          0.558 0.558 0.558 0.558 0.558 0.558 0.558 0.558 0.558 0.558 0.558 0.558
          0.558 0.558 0.558 0.558 0.558 0.558 0.558 0.558 0.558 0.558 0.558 0.558
          0.558 0.558 0.558 0.558 0.558 0.558 0.558 0.558 0.558 0.558 0.558 0.558
          0.558 0.558 0.558 0.558 0.558 0.558 0.558 0.558 0.558 0.558 0.558
        </DataArray>
        <DataArray type="Float32" Name="filterVelocity_w" NumberOfComponents="1" format="ascii">
          0.000136549 0.000353562 0.000608569 0.000892638 0.001186 0.00148371 0.00178367 0.00208474 0.00238623 0.00268766 0.00298871 0.00328914
          0.00358878 0.00388752 0.00418527 0.00448196 0.00477754 0.005072 0.00536531 0.00565746 0.00594845 0.00623829 0.00652698 0.00681453
          0.00710096 0.00738629 0.00767052 0.00795368 0.00823579 0.00851687 0.00879693 0.009076 0.00935409 0.00963123 0.00990744 0.0101827
          0.0104571 0.0107306 0.0110033 0.0112751 0.0115461 0.0118164 0.0120858 0.0123544 0.0126223 0.0128895 0.0131559 0.0134217
          0.0136867 0.0139511 0.0142148 0.0144779 0.0147403 0.0150022 0.0152634 0.015524 0.0157841 0.0160435 0.0163025 0.0165609
          0.0168187 0.017076 0.0173328 0.0175892 0.017845 0.0181003 0.0183552 0.0186096 0.0188636 0.0191171 0.0193702 0.0196228
          0.0198751 0.0201269 0.0203783 0.0206294 0.02088 0.0211303 0.0213802 0.0216298 0.021879 0.0221279 0.0223764 0.0226246
          0.0228724 0.0231199 0.0233672 0.0236141 0.0238607 0.024107 0.024353 0.0245988 0.0248443 0.0250895 0.0253344 0.0255791
          0.0258235 0.0260676 0.0263116 0.0265552 0.0267987 0.0270419 0.0272849 0.0275276 0.0277702 0.0280125 0.0282546 0.0284966
          0.0287383 0.0289798 0.0292211 0.0294623 0.0297032 0.029944 0.0301846 0.0304251 0.0306653 0.0309054 0.0311454 0.0313851
          0.0316248 0.0318642 0.0321036 0.0323427 0.0325818 0.0328207 0.0330595 0.0332981 0.0335366 0.033775 0.0340132 0.0342513
          0.0344894 0.0347272 0.034965 0.0352027 0.0354403 0.0356777 0.0359151 0.0361523 0.0363895 0.0366265 0.0368635 0.0371003
          0.0373371 0.0375738 0.0378104 0.0380469 0.0382833 0.0385197 0.0387559 0.0389921 0.0392282 0.0394642 0.0397002 0.0399361
          0.0401719 0.0404076 0.0406433 0.0408789 0.0411145 0.0413499 0.0415853 0.0418207 0.0420559 0.0422912 0.0425263 0.0427614
          0.0429964 0.0432314 0.0434663 0.0437011 0.0439359 0.0441706 0.0444053 0.0446399 0.0448744 0.0451089 0.0453433 0.0455777
          0.045812 0.0460462 0.0462804 0.0465144 0.0467485 0.0469824 0.0472163 0.0474501 0.0476839 0.0479175 0.0481511 0.0483846
          0.0486181 0.0488514 0.0490847 0.0493178 0.0495509 0.0497839 0.0500168 0.0502495 0.0504822 0.0507147 0.0509472 0.0511795
          0.0514117 0.0516438 0.0518757 0.0521075 0.0523391 0.0525706 0.0528019 0.0530331 0.053264 0.0534948 0.0537254 0.0539558
          0.054186 0.054416 0.0546457 0.0548752 0.0551044 0.0553334 0.0555621 0.0557905 0.0560186 0.0562463 0.0564738 0.0567009
          0.0569276 0.0571539 0.0573798 0.0576053 0.0578303 0.0580549 0.058279 0.0585025 0.0587255 0.0589479 0.0591697 0.0593909
          0.0596114 0.0598312 0.0600502 0.0602685 0.0604859 0.0607024 0.060918 0.0611323 0.0613424 0.0615286 0.0616112
        </DataArray>
        <DataArray type="Float32" Name="filterVelocity_n" NumberOfComponents="1" format="ascii">
          0.325122 0.325291 0.325621 0.325934 0.326238 0.326534 0.326827 0.327117 0.327406 0.327696 0.327987 0.328279
          0.328574 0.328872 0.329173 0.329477 0.329785 0.330097 0.330414 0.330734 0.33106 0.33139 0.331724 0.332064
          0.332408 0.332758 0.333113 0.333472 0.333837 0.334208 0.334584 0.334965 0.335351 0.335743 0.336141 0.336544
          0.336953 0.337367 0.337787 0.338213 0.338645 0.339082 0.339526 0.339975 0.34043 0.340891 0.341358 0.341831
          0.34231 0.342795 0.343287 0.343784 0.344288 0.344798 0.345314 0.345837 0.346366 0.346902 0.347444 0.347992
          0.348548 0.34911 0.349678 0.350253 0.350835 0.351424 0.35202 0.352623 0.353232 0.353849 0.354473 0.355104
          0.355742 0.356388 0.357041 0.357701 0.358369 0.359045 0.359728 0.360419 0.361117 0.361824 0.362538 0.363261
          0.363991 0.36473 0.365476 0.366232 0.366995 0.367767 0.368548 0.369337 0.370135 0.370942 0.371758 0.372583
          0.373417 0.374261 0.375113 0.375976 0.376847 0.377729 0.37862 0.379521 0.380432 0.381353 0.382285 0.383227
          0.384179 0.385142 0.386116 0.3871 0.388096 0.389103 0.390121 0.391151 0.392192 0.393245 0.39431 0.395387
          0.396477 0.397578 0.398693 0.39982 0.40096 0.402113 0.403279 0.404459 0.405652 0.40686 0.408081 0.409317
          0.410567 0.411832 0.413111 0.414406 0.415716 0.417042 0.418384 0.419742 0.421116 0.422506 0.423914 0.425338
          0.42678 0.42824 0.429717 0.431213 0.432727 0.43426 0.435813 0.437384 0.438976 0.440588 0.44222 0.443873
          0.445548 0.447244 0.448961 0.450702 0.452465 0.454251 0.456061 0.457895 0.459753 0.461637 0.463546 0.46548
          0.467442 0.46943 0.471445 0.473489 0.475561 0.477662 0.479793 0.481954 0.484146 0.486369 0.488625 0.490914
          0.493236 0.495592 0.497984 0.500411 0.502875 0.505376 0.507915 0.510494 0.513112 0.515771 0.518472 0.521216
          0.524003 0.526835 0.529713 0.532638 0.535611 0.538634 0.541706 0.544831 0.548008 0.55124 0.554528 0.557873
          0.561277 0.56474 0.568266 0.571856 0.57551 0.579232 0.583022 0.586884 0.590818 0.594828 0.598914 0.60308
          0.607328 0.61166 0.616078 0.620587 0.625187 0.629882 0.634676 0.639571 0.64457 0.649677 0.654896 0.660231
          0.665684 0.671261 0.676966 0.682803 0.688777 0.694893 0.701156 0.707572 0.714146 0.720885 0.727795 0.734883
          0.742156 0.749621 0.757287 0.765161 0.773254 0.781573 0.79013 0.798936 0.808009 0.817431 0.822218
        </DataArray>
        <DataArray type="Float32" Name="temperature" NumberOfComponents="1" format="ascii">
          299.75 299.75 299.75 299.75 299.75 299.75 299.75 299.75 299.75 299.75 299.75 299.75
          299.75 299.75 299.75 299.75 299.75 299.75 299.75 299.75 299.75 299.75 299.75 299.75
          299.75 299.75 299.75 299.75 299.75 299.75 299.75 299.75 299.75 299.75 299.75 299.75
          299.75 299.75 299.75 299.75 299.75 299.75 299.75 299.75 299.75 299.75 299.75 299.75
          299.75 299.75 299.75 299.75 299.75 299.75 299.75 299.75 299.75 299.75 299.75 299.75
          299.75 299.75 299.75 299.75 299.75 299.75 299.75 299.75 299.75 299.75 299.75 299.75
          299.75 299.75 299.75 299.75 299.75 299.75 299.75 299.75 299.75 299.75 299.75 299.75
          299.75 299.75 299.75 299.75 299.75 299.75 299.75 299.75 299.75 299.75 299.75 299.75
          299.75 299.75 299.75 299.75 299.75 299.75 299.75 299.75 299.75 299.75 299.75 299.75
          299.75 299.75 299.75 299.75 299.75 299.75 299.75 299.75 299.75 299.75 299.75 299.75
          299.75 299.75 299.75 299.75 299.75 299.75 299.75 299.75 299.75 299.75 299.75 299.75
          299.75 299.75 299.75 299.75 299.75 299.75 299.75 299.75 299.75 299.75 299.75 299.75
          299.75 299.75 299.75 299.75 299.75 299.75 299.75 299.75 299.75 299.75 299.75 299.75
          299.75 299.75 299.75 299.75 299.75 299.75 299.75 299.75 299.75 299.75 299.75 299.75
          299.75 299.75 299.75 299.75 299.75 299.75 299.75 299.75 299.75 299.75 299.75 299.75
          299.75 299.75 299.75 299.75 299.75 299.75 299.75 299.75 299.75 299.75 299.75 299.75
          299.75 299.75 299.75 299.75 299.75 299.75 299.75 299.75 299.75 299.75 299.75 299.75
          299.75 299.75 299.75 299.75 299.75 299.75 299.75 299.75 299.75 299.75 299.75 299.75
          299.75 299.75 299.75 299.75 299.75 299.75 299.75 299.75 299.75 299.75 299.75 299.75
          299.75 299.75 299.75 299.75 299.75 299.75 299.75 299.75 299.75 299.75 299.75 299.75
          299.75 299.75 299.75 299.75 299.75 299.75 299.75 299.75 299.75 299.75 299.75
        </DataArray>
      </PointData>
      <Points>
        <DataArray type="Float32" Name="Coordinates" NumberOfComponents="3" format="ascii">
          0 0 0 0.4 0 0 0.8 0 0 1.2 0 0
          1.6 0 0 2 0 0 2.4 0 0 2.8 0 0
          3.2 0 0 3.6 0 0 4 0 0 4.4 0 0
          4.8 0 0 5.2 0 0 5.6 0 0 6 0 0
          6.4 0 0 6.8 0 0 7.2 0 0 7.6 0 0
          8 0 0 8.4 0 0 8.8 0 0 9.2 0 0
          9.6 0 0 10 0 0 10.4 0 0 10.8 0 0
          11.2 0 0 11.6 0 0 12 0 0 12.4 0 0
          12.8 0 0 13.2 0 0 13.6 0 0 14 0 0
          14.4 0 0 14.8 0 0 15.2 0 0 15.6 0 0
          16 0 0 16.4 0 0 16.8 0 0 17.2 0 0
          17.6 0 0 18 0 0 18.4 0 0 18.8 0 0
          19.2 0 0 19.6 0 0 20 0 0 20.4 0 0
          20.8 0 0 21.2 0 0 21.6 0 0 22 0 0
          22.4 0 0 22.8 0 0 23.2 0 0 23.6 0 0
          24 0 0 24.4 0 0 24.8 0 0 25.2 0 0
          25.6 0 0 26 0 0 26.4 0 0 26.8 0 0
          27.2 0 0 27.6 0 0 28 0 0 28.4 0 0
          28.8 0 0 29.2 0 0 29.6 0 0 30 0 0
          30.4 0 0 30.8 0 0 31.2 0 0 31.6 0 0
          32 0 0 32.4 0 0 32.8 0 0 33.2 0 0
          33.6 0 0 34 0 0 34.4 0 0 34.8 0 0
          35.2 0 0 35.6 0 0 36 0 0 36.4 0 0
          36.8 0 0 37.2 0 0 37.6 0 0 38 0 0
          38.4 0 0 38.8 0 0 39.2 0 0 39.6 0 0
          40 0 0 40.4 0 0 40.8 0 0 41.2 0 0
          41.6 0 0 42 0 0 42.4 0 0 42.8 0 0
          43.2 0 0 43.6 0 0 44 0 0 44.4 0 0
          44.8 0 0 45.2 0 0 45.6 0 0 46 0 0
          46.4 0 0 46.8 0 0 47.2 0 0 47.6 0 0
          48 0 0 48.4 0 0 48.8 0 0 49.2 0 0
          49.6 0 0 50 0 0 50.4 0 0 50.8 0 0
          51.2 0 0 51.6 0 0 52 0 0 52.4 0 0
          52.8 0 0 53.2 0 0 53.6 0 0 54 0 0
          54.4 0 0 54.8 0 0 55.2 0 0 55.6 0 0
          56 0 0 56.4 0 0 56.8 0 0 57.2 0 0
          57.6 0 0 58 0 0 58.4 0 0 58.8 0 0
          59.2 0 0 59.6 0 0 60 0 0 60.4 0 0
          60.8 0 0 61.2 0 0 61.6 0 0 62 0 0
          62.4 0 0 62.8 0 0 63.2 0 0 63.6 0 0
          64 0 0 64.4 0 0 64.8 0 0 65.2 0 0
          65.6 0 0 66 0 0 66.4 0 0 66.8 0 0
          67.2 0 0 67.6 0 0 68 0 0 68.4 0 0