<?xml version="1.0"?>
<VTKFile type="PolyData" version="0.1" byte_order="LittleEndian">
  <PolyData>
    <Piece NumberOfLines="250" NumberOfPoints="251">
      <PointData Scalars="pressure_w">
        <DataArray type="Float32" Name="pressure_w" NumberOfComponents="1" format="ascii">
          967323 967285 967204 967095 966963 966811 966640 966451 966246 966023 965783 965527
          965253 964963 964655 964330 963988 963628 963250 962855 962441 962009 961559 961091
          960603 960097 959572 959028 958464 957881 957279 956656 956015 955353 954671 953968
          953246 952503 951740 950956 950151 949325 948478 947611 946722 945811 944879 943926
          942951 941955 940936 939896 938833 937749 936642 935512 934361 933187 931990 930770
          929528 928263 926975 925663 924329 922971 921590 920185 918757 917305 915829 914329
          912806 911258 909687 908091 906470 904826 903156 901462 899744 898001 896232 894439
          892621 890777 888909 887015 885095 883150 881179 879183 877161 875112 873038 870938
          868811 866658 864479 862274 860041 857782 855497 853184 850844 848478 846084 843663
          841215 838739 836236 833705 831146 828560 825946 823304 820633 817935 815208 812453
          809670 806858 804017 801148 798250 795323 792366 789381 786367 783323 780250 777147
          774014 770852 767659 764437 761184 757901 754588 751244 747869 744463 741027 737559
          734059 730528 726966 723371 719745 716086 712395 708671 704914 701125 697302 693446
          689556 685632 681674 677682 673656 669594 665497 661365 657198 652995 648755 644480
          640168 635819 631433 627010 622549 618051 613514 608938 604324 599671 594978 590244
          585471 580657 575802 570905 565966 560984 555960 550893 545782 540626 535426 530180
          524889 519551 514166 508734 503253 497724 492145 486516 480837 475106 469323 463486
          457597 451652 445653 439597 433484 427312 421082 414792 408441 402028 395551 389010
          382403 375729 368987 362175 355292 348336 341305 334198 327014 319749 312402 304972
          297455 289849 282152 274361 266473 258485 250393 242195 233886 225462 216920 208253
          199459 190529 181458 172237 162857 153307 143575 133645 123501 113122 102490
        </DataArray>
        <DataArray type="Float32" Name="pressure_n" NumberOfComponents="1" format="ascii">
          969942 969821 969683 969529 969360 969177 968978 968765 968537 968294 968036 967761
          967472 967166 966844 966505 966150 965778 965389 964982 964558 964116 963656 963178
          962682 962167 961633 961081 960510 959919 959310 958680 958032 957363 956675 955966
          955238 954489 953720 952930 952120 951289 950437 949564 948670 947755 946818 945860
          944881 943880 942857 941812 940745 939657 938546 937413 936257 935079 933879 932656
          931410 930141 928849 927534 926196 924835 923451 922043 920611 919156 917677 916175
          914648 913097 911523 909924 908301 906653 904981 903285 901563 899817 898047 896251
          894430 892584 890713 888816 886894 884947 882974 880975 878950 876900 874823 872721
          870592 868437 866256 864048 861813 859552 857264 854950 852608 850240 847844 845421
          842971 840493 837988 835455 832895 830307 827691 825047 822375 819675 816946 814190
          811404 808591 805748 802878 799978 797049 794091 791105 788088 785043 781968 778864
          775730 772566 769372 766148 762894 759610 756295 752950 749574 746167 742729 739260
          735759 732227 728663 725067 721440 717780 714087 710362 706605 702814 698990 695133
          691242 687317 683358 679365 675337 671274 667177 663044 658875 654671 650431 646154
          641842 637492 633105 628681 624220 619720 615183 610606 605991 601337 596643 591909
          587135 582320 577464 572566 567627 562645 557620 552552 547440 542284 537083 531837
          526545 521207 515822 510389 504908 499378 493799 488170 482490 476759 470975 465139
          459249 453304 447304 441248 435135 428964 422734 416444 410093 403679 397203 390662
          384055 377382 370640 363828 356946 349990 342960 335854 328670 321406 314060 306631
          299115 291510 283814 276025 268138 260152 252062 243866 235559 227137 218597 209934
          201142 192216 183148 173931 164556 155011 145284 135360 125223 114851 104174
        </DataArray>
        <DataArray type="Float32" Name="density_w" NumberOfComponents="1" format="ascii">
          1000 1000 1000 1000 1000 1000 1000 1000 1000 1000 1000 1000
          1000 1000 1000 1000 1000 1000 1000 1000 1000 1000 1000 1000
          1000 1000 1000 1000 1000 1000 1000 1000 1000 1000 1000 1000
          1000 1000 1000 1000 1000 1000 1000 1000 1000 1000 1000 1000
          1000 1000 1000 1000 1000 1000 1000 1000 1000 1000 1000 1000
          1000 1000 1000 1000 1000 1000 1000 1000 1000 1000 1000 1000
          1000 1000 1000 1000 1000 1000 1000 1000 1000 1000 1000 1000
          1000 1000 1000 1000 1000 1000 1000 1000 1000 1000 1000 1000
          1000 1000 1000 1000 1000 1000 1000 1000 1000 1000 1000 1000
          1000 1000 1000 1000 1000 1000 1000 1000 1000 1000 1000 1000
          1000 1000 1000 1000 1000 1000 1000 1000 1000 1000 1000 1000
          1000 1000 1000 1000 1000 1000 1000 1000 1000 1000 1000 1000
          1000 1000 1000 1000 1000 1000 1000 1000 1000 1000 1000 1000
          1000 1000 1000 1000 1000 1000 1000 1000 1000 1000 1000 1000
          1000 1000 1000 1000 1000 1000 1000 1000 1000 1000 1000 1000
          1000 1000 1000 1000 1000 1000 1000 1000 1000 1000 1000 1000
          1000 1000 1000 1000 1000 1000 1000 1000 1000 1000 1000 1000
          1000 1000 1000 1000 1000 1000 1000 1000 1000 1000 1000 1000
          1000 1000 1000 1000 1000 1000 1000 1000 1000 1000 1000 1000
          1000 1000 1000 1000 1000 1000 1000 1000 1000 1000 1000 1000
          1000 1000 1000 1000 1000 1000 1000 1000 1000 1000 1000
        </DataArray>
        <DataArray type="Float32" Name="density_n" NumberOfComponents="1" format="ascii">
          11.2707 11.2693 11.2677 11.2659 11.2639 11.2618 11.2595 11.257 11.2544 11.2515 11.2485 11.2454
          11.242 11.2384 11.2347 11.2308 11.2266 11.2223 11.2178 11.2131 11.2081 11.203 11.1976 11.1921
          11.1863 11.1803 11.1741 11.1677 11.1611 11.1542 11.1471 11.1398 11.1323 11.1245 11.1165 11.1083
          11.0998 11.0911 11.0822 11.073 11.0636 11.0539 11.044 11.0339 11.0235 11.0129 11.002 10.9909
          10.9795 10.9678 10.956 10.9438 10.9314 10.9188 10.9059 10.8927 10.8793 10.8656 10.8516 10.8374
          10.8229 10.8082 10.7932 10.7779 10.7624 10.7465 10.7305 10.7141 10.6975 10.6806 10.6634 10.6459
          10.6282 10.6102 10.5919 10.5733 10.5544 10.5353 10.5158 10.4961 10.4761 10.4558 10.4353 10.4144
          10.3932 10.3718 10.35 10.328 10.3057 10.283 10.2601 10.2369 10.2134 10.1895 10.1654 10.141
          10.1162 10.0912 10.0659 10.0402 10.0142 9.98796 9.96138 9.93448 9.90728 9.87975 9.85191 9.82376
          9.79529 9.7665 9.73739 9.70796 9.67821 9.64813 9.61773 9.58701 9.55596 9.52459 9.49288 9.46085
          9.42849 9.39579 9.36277 9.32941 9.29571 9.26168 9.22731 9.1926 9.15756 9.12217 9.08644 9.05037
          9.01395 8.97719 8.94008 8.90261 8.8648 8.82664 8.78812 8.74925 8.71002 8.67043 8.63048 8.59017
          8.54949 8.50845 8.46704 8.42525 8.3831 8.34057 8.29767 8.25438 8.21072 8.16667 8.12224 8.07741
          8.0322 7.9866 7.94059 7.89419 7.84739 7.80018 7.75257 7.70454 7.65611 7.60725 7.55798 7.50829
          7.45817 7.40763 7.35666 7.30525 7.25341 7.20113 7.1484 7.09522 7.04159 6.98751 6.93297 6.87796
          6.82249 6.76654 6.71011 6.6532 6.5958 6.53791 6.47953 6.42064 6.36124 6.30132 6.24089 6.17993
          6.11844 6.0564 5.99383 5.9307 5.86701 5.80275 5.73792 5.67251 5.60651 5.53992 5.47271 5.40489
          5.33645 5.26738 5.19766 5.12729 5.05625 4.98455 4.91215 4.83906 4.76526 4.69074 4.61548 4.53948
          4.46271 4.38516 4.30682 4.22767 4.14769 4.06687 3.98518 3.90261 3.81913 3.73473 3.64937 3.56304
          3.4757 3.38734 3.29791 3.2074 3.11575 3.02295 2.92895 2.83371 2.73718 2.63933 2.54009 2.43942
          2.33726 2.23354 2.12818 2.02108 1.91213 1.80122 1.68819 1.57288 1.45509 1.33456 1.21049
        </DataArray>
        <DataArray type="Float32" Name="saturation_w" NumberOfComponents="1" format="ascii">
          0.28268 0.32935 0.364631 0.39378 0.418928 0.441193 0.461248 0.479532 0.49635 0.511924 0.526423 0.539979
          0.552695 0.564659 0.575942 0.586607 0.596705 0.606283 0.615382 0.624039 0.632284 0.640148 0.647658 0.654836
          0.661705 0.668284 0.674593 0.680647 0.686463 0.692054 0.697433 0.702613 0.707605 0.712419 0.717065 0.721551
          0.725888 0.730081 0.734138 0.738066 0.741872 0.745561 0.749139 0.752611 0.755981 0.759256 0.762437 0.765531
          0.76854 0.771469 0.77432 0.777097 0.779802 0.782439 0.78501 0.787518 0.789966 0.792355 0.794687 0.796965
          0.799191 0.801367 0.803494 0.805573 0.807608 0.809598 0.811546 0.813453 0.81532 0.817149 0.81894 0.820696
          0.822416 0.824102 0.825755 0.827377 0.828967 0.830527 0.832057 0.833559 0.835033 0.83648 0.837901 0.839296
          0.840666 0.842012 0.843334 0.844633 0.845909 0.847163 0.848396 0.849608 0.850799 0.85197 0.853121 0.854253
          0.855366 0.856461 0.857538 0.858597 0.859639 0.860663 0.861672 0.862663 0.863639 0.864599 0.865543 0.866472
          0.867387 0.868286 0.869171 0.870042 0.870899 0.871742 0.872572 0.873388 0.874191 0.874981 0.875759 0.876524
          0.877277 0.878018 0.878747 0.879465 0.880171 0.880866 0.88155 0.882223 0.882885 0.883537 0.884179 0.884811
          0.885433 0.886045 0.886648 0.887242 0.887826 0.888402 0.888968 0.889527 0.890076 0.890618 0.891151 0.891677
          0.892194 0.892703 0.893205 0.893698 0.894184 0.894663 0.895134 0.895598 0.896055 0.896504 0.896947 0.897383
          0.897812 0.898234 0.89865 0.899059 0.899461 0.899857 0.900246 0.900629 0.901004 0.901373 0.901735 0.90209
          0.902439 0.902781 0.903117 0.903447 0.90377 0.904087 0.904398 0.904702 0.904999 0.905291 0.905576 0.905855
          0.906127 0.906392 0.906651 0.906903 0.907149 0.907387 0.907619 0.907844 0.908061 0.908271 0.908474 0.908669
          0.908857 0.909036 0.909207 0.90937 0.909525 0.909671 0.909808 0.909936 0.910054 0.910163 0.910262 0.91035
          0.910428 0.910495 0.910551 0.910594 0.910626 0.910644 0.91065 0.910641 0.910619 0.910581 0.910528 0.910459
          0.910372 0.910267 0.910143 0.91 0.909835 0.909648 0.909437 0.909201 0.908939 0.908648 0.908327 0.907973
          0.907584 0.907157 0.90669 0.906178 0.905618 0.905005 0.904335 0.9036 0.902795 0.901912 0.90094 0.899869
          0.898688 0.897387 0.895949 0.894351 0.892569 0.89057 0.888313 0.885745 0.882797 0.879613 0.898586
        </DataArray>
        <DataArray type="Float32" Name="saturation_n" NumberOfComponents="1" format="ascii">
          0.71732 0.67065 0.635369 0.60622 0.581072 0.558806 0.538752 0.520468 0.50365 0.488076 0.473577 0.460021
          0.447305 0.435341 0.424058 0.413393 0.403295 0.393717 0.384618 0.375961 0.367716 0.359852 0.352342 0.345164
          0.338295 0.331716 0.325407 0.319353 0.313537 0.307946 0.302567 0.297387 0.292395 0.287581 0.282935 0.278449
          0.274112 0.269919 0.265862 0.261934 0.258128 0.254439 0.250861 0.247389 0.244019 0.240744 0.237563 0.234469
          0.23146 0.228531 0.22568 0.222903 0.220198 0.217561 0.21499 0.212482 0.210034 0.207645 0.205313 0.203035
          0.200809 0.198633 0.196506 0.194427 0.192392 0.190402 0.188454 0.186547 0.18468 0.182851 0.18106 0.179304
          0.177584 0.175898 0.174245 0.172623 0.171033 0.169473 0.167943 0.166441 0.164967 0.16352 0.162099 0.160704
          0.159334 0.157988 0.156666 0.155367 0.154091 0.152837 0.151604 0.150392 0.149201 0.14803 0.146879 0.145747
          0.144634 0.143539 0.142462 0.141403 0.140361 0.139337 0.138328 0.137337 0.136361 0.135401 0.134457 0.133527
          0.132613 0.131714 0.130829 0.129958 0.129101 0.128258 0.127428 0.126612 0.125809 0.125019 0.124241 0.123476
          0.122723 0.121982 0.121253 0.120535 0.119829 0.119134 0.11845 0.117777 0.117115 0.116463 0.115821 0.115189
          0.114567 0.113955 0.113352 0.112758 0.112174 0.111598 0.111032 0.110473 0.109924 0.109382 0.108849 0.108323
          0.107806 0.107297 0.106795 0.106302 0.105816 0.105337 0.104866 0.104402 0.103945 0.103496 0.103053 0.102617
          0.102188 0.101766 0.10135 0.100941 0.100539 0.100143 0.0997536 0.0993712 0.0989957 0.098627 0.0982651 0.0979097
          0.0975609 0.0972185 0.0968826 0.096553 0.0962298 0.095913 0.0956025 0.0952983 0.0950005 0.094709 0.094424 0.0941454
          0.0938733 0.0936078 0.0933488 0.0930966 0.0928511 0.0926125 0.0923808 0.0921562 0.0919388 0.0917287 0.091526 0.0913309
          0.0911435 0.090964 0.0907927 0.0906295 0.0904749 0.0903289 0.0901919 0.090064 0.0899456 0.0898368 0.089738 0.0896496
          0.0895717 0.0895049 0.0894495 0.0894058 0.0893744 0.0893557 0.0893502 0.0893585 0.0893811 0.0894186 0.0894718 0.0895414
          0.0896282 0.0897329 0.0898567 0.0900004 0.0901651 0.0903522 0.0905629 0.0907987 0.0910611 0.091352 0.0916733 0.0920272
          0.0924162 0.0928428 0.0933104 0.0938222 0.0943822 0.0949949 0.0956654 0.0963997 0.0972046 0.0980882 0.0990601 0.100131
          0.101312 0.102613 0.104051 0.105649 0.107431 0.10943 0.111687 0.114255 0.117203 0.120388 0.101414
        </DataArray>
        <DataArray type="Float32" Name="relativePerm_w" NumberOfComponents="1" format="ascii">
          0.0219328 0.0339871 0.0455443 0.0568565 0.0680045 0.0790206 0.0899166 0.100695 0.111351 0.12188 0.132273 0.142523
          0.152621 0.162561 0.172337 0.181944 0.191378 0.200636 0.209716 0.218617 0.227341 0.235886 0.244256 0.252451
          0.260475 0.268329 0.276018 0.283544 0.290911 0.298123 0.305183 0.312096 0.318864 0.325492 0.331984 0.338343
          0.344572 0.350677 0.35666 0.362524 0.368273 0.37391 0.379439 0.384863 0.390184 0.395405 0.400529 0.40556
          0.410499 0.415349 0.420113 0.424792 0.42939 0.433908 0.438349 0.442714 0.447006 0.451227 0.455377 0.45946
          0.463476 0.467428 0.471317 0.475145 0.478913 0.482622 0.486274 0.48987 0.493412 0.496901 0.500337 0.503723
          0.507059 0.510346 0.513585 0.516778 0.519925 0.523028 0.526086 0.529102 0.532076 0.535008 0.5379 0.540752
          0.543566 0.546341 0.549078 0.551779 0.554443 0.557072 0.559666 0.562225 0.56475 0.567242 0.569701 0.572128
          0.574524 0.576887 0.57922 0.581522 0.583795 0.586037 0.588251 0.590435 0.592591 0.594719 0.596818 0.59889
          0.600935 0.602953 0.604944 0.606909 0.608847 0.61076 0.612647 0.614509 0.616346 0.618158 0.619946 0.621709
          0.623449 0.625165 0.626858 0.628528 0.630176 0.631801 0.633404 0.634985 0.636545 0.638083 0.639601 0.641098
          0.642575 0.644032 0.645469 0.646887 0.648286 0.649666 0.651029 0.652373 0.653699 0.655008 0.656299 0.657573
          0.65883 0.660069 0.661292 0.662498 0.663687 0.66486 0.666016 0.667157 0.668281 0.66939 0.670484 0.671562
          0.672625 0.673672 0.674705 0.675723 0.676726 0.677714 0.678689 0.67966 0.680627 0.681588 0.682544 0.683493
          0.684436 0.685372 0.6863 0.68722 0.688132 0.689033 0.689925 0.690807 0.691677 0.692536 0.693383 0.694216
          0.695037 0.695843 0.696634 0.69741 0.69817 0.698913 0.699638 0.700345 0.701033 0.701702 0.702349 0.702976
          0.70358 0.704161 0.704718 0.70525 0.705756 0.706236 0.706687 0.70711 0.707502 0.707863 0.708192 0.708487
          0.708747 0.70897 0.709156 0.709302 0.709407 0.70947 0.709489 0.709461 0.709385 0.709259 0.709081 0.708848
          0.708558 0.708209 0.707797 0.70732 0.706776 0.706159 0.705468 0.704699 0.703846 0.702908 0.701878 0.700753
          0.699527 0.698195 0.696752 0.695191 0.693507 0.691694 0.689744 0.687652 0.68541 0.683015 0.68046 0.677742
          0.674801 0.671573 0.66802 0.664095 0.659742 0.654891 0.649453 0.643316 0.636337 0.628873 0.674547
        </DataArray>
        <DataArray type="Float32" Name="relativePerm_n" NumberOfComponents="1" format="ascii">
          0.568467 0.501127 0.452332 0.413513 0.381173 0.353467 0.329281 0.307883 0.288762 0.271544 0.255944 0.241739
          0.228751 0.216834 0.205865 0.195742 0.186377 0.177693 0.169624 0.162113 0.155109 0.148565 0.142443 0.136706
          0.131322 0.126262 0.121501 0.117015 0.112783 0.108785 0.105004 0.101426 0.0980339 0.0948162 0.0917606 0.088856
          0.0860924 0.0834607 0.0809523 0.0785593 0.0762748 0.0740919 0.0720046 0.0700072 0.0680945 0.0662616 0.064504 0.0628175
          0.0611982 0.0596426 0.0581471 0.0567086 0.0553242 0.0539912 0.052707 0.051469 0.0502752 0.0491233 0.0480114 0.0469376
          0.0459002 0.0448974 0.0439277 0.0429896 0.0420819 0.041203 0.0403519 0.0395273 0.0387281 0.0379533 0.0372019 0.036473
          0.0357656 0.0350789 0.0344121 0.0337644 0.0331352 0.0325236 0.0319292 0.0313511 0.030789 0.0302421 0.0297099 0.029192
          0.0286877 0.0281968 0.0277186 0.0272528 0.026799 0.0263568 0.0259258 0.0255056 0.0250959 0.0246963 0.0243066 0.0239265
          0.0235556 0.0231937 0.0228406 0.0224959 0.0221594 0.0218308 0.0215101 0.0211969 0.020891 0.0205922 0.0203004 0.0200153
          0.0197368 0.0194648 0.0191989 0.0189391 0.0186853 0.0184372 0.0181947 0.0179577 0.017726 0.0174995 0.0172781 0.0170616
          0.01685 0.016643 0.0164405 0.0162425 0.0160489 0.0158594 0.0156741 0.0154927 0.0153153 0.0151417 0.0149717 0.0148054
          0.0146426 0.0144832 0.0143271 0.0141743 0.0140247 0.0138781 0.0137344 0.0135937 0.0134559 0.0133208 0.0131884 0.0130587
          0.0129316 0.0128071 0.0126851 0.0125655 0.0124483 0.0123335 0.012221 0.0121108 0.0120028 0.0118969 0.0117931 0.0116914
          0.0115917 0.011494 0.0113982 0.0113044 0.0112124 0.0111223 0.011034 0.0109477 0.0108633 0.0107807 0.0107 0.010621
          0.0105437 0.0104682 0.0103944 0.0103222 0.0102516 0.0101827 0.0101154 0.0100497 0.00998555 0.00992299 0.009862 0.00980257
          0.0097447 0.00968839 0.00963364 0.00958046 0.00952885 0.00947882 0.00943037 0.00938352 0.00933828 0.00929467 0.0092527 0.00921239
          0.00917376 0.00913684 0.00910165 0.00906822 0.00903659 0.00900679 0.00897885 0.00895282 0.00892874 0.00890666 0.00888663 0.00886871
          0.00885297 0.00883945 0.00882825 0.00881944 0.0088131 0.00880933 0.00880822 0.00880989 0.00881445 0.00882203 0.00883277 0.00884683
          0.00886438 0.0088856 0.00891069 0.00893987 0.0089734 0.00901154 0.00905459 0.00910289 0.0091568 0.00921675 0.0092832 0.00935667
          0.00943776 0.00952712 0.00962552 0.00973383 0.00985305 0.00998434 0.010129 0.0102887 0.0104651 0.0106606 0.0108777 0.0111197
          0.0113893 0.0116903 0.0120278 0.0124083 0.0128399 0.0133328 0.0139007 0.0145614 0.0153389 0.0162019 0.0114128
        </DataArray>
        <DataArray type="Float32" Name="porosity" NumberOfComponents="1" format="ascii">
          0.558 0.558 0.558 0.558 0.558 0.558 0.558 0.558 0.558 0.558 0.558 0.558
          0.558 0.558 0.558 0.558 0.558 0.558 0.558 0.558 0.558 0.558 0.558 0.558
          0.558 0.558 0.558 0.558 0.558 0.558 0.558 0.558 0.558 0.558 0.558 0.558
          0.558 0.558 0.558 0.558 0.558 0.558 0.558 0.558 0.558 0.558 0.558 0.558
          0.558 0.558 0.558 0.558 0.558 0.558 0.558 0.558 0.558 0.558 0.558 0.558
          0.558 0.558 0.558 0.558 0.558 0.558 0.558 0.558 0.558 0.558 0.558 0.558
          0.558 0.558 0.558 0.558 0.558 0.558 0.558 0.558 0.558 0.558 0.558 0.558
          0.558 0.558 0.558 0.558 0.558 0.558 0.558 0.558 0.558 0.558 0.558 0.558
          0.558 0.558 0.558 0.558 0.558 0.558 0.558 0.558 0.558 0.558 0.558 0.558
          0.558 0.558 0.558 0.558 0.558 0.558 0.558 0.558 0.558 0.558 0.558 0.558
          0.558 0.558 0.558 0.558 0.558 0.558 0.558 0.558 0.558 0.558 0.558 0.558
          0.558 0.558 0.558 0.558 0.558 0.558 0.558 0.558 0.558 0.558 0.558 0.558
          0.558 0.558 0.558 0.558 0.558 0.558 0.558 0.558 0.558 0.558 0.558 0.558
          0.558 0.558 0.558 0.558 0.558 0.558 0.558 0.558 0.558 0.558 0.558 0.558
          0.558 0.558 0.558 0.558 0.558 0.558 0.558 0.558 0.558 0.558 0.558 0.558
          0.558 0.558 0.558 0.558 0.558 0.558 0.558 0.558 0.558 0.558 0.558 0.558
          0.558 0.558 0.558 0.558 0.558 0.558 0.558 0.558 0.558 0.558 0.558 0.558
          0.558 0.558 0.558 0.558 0.558 0.558 0.558 0.558 0.558 0.558 0.558 0.558
          0.558 0.558 0.558 0.558 0.558 0.558 0.558 0.558 0.558 0.558 0.558 0.558
          0.558 0.558 0.558 0.558 0.558 0.558 0.558 0.558 0.558 0.558 0.558 0.558
          0.558 0.558 0.558 0.558 0.558 0.558 0.558 0.558 0.558 0.558 0.558
        </DataArray>
        <DataArray type="Float32" Name="filterVelocity_w" NumberOfComponents="1" format="ascii">
          0.000116468 0.000318691 0.00056644 0.000858806 0.0011779 0.00151807 0.00187601 0.0022493 0.00263593 0.00303417 0.00344248 0.00385949
          0.00428396 0.00471477 0.00515091 0.00559149 0.00603571 0.00648283 0.00693223 0.00738335 0.00783569 0.00828881 0.00874232 0.00919591
          0.00964926 0.0101021 0.0105543 0.0110056 0.0114559 0.0119049 0.0123527 0.0127991 0.0132439 0.0136872 0.0141289 0.014569
          0.0150073 0.0154439 0.0158788 0.0163119 0.0167432 0.0171728 0.0176005 0.0180265 0.0184507 0.0188732 0.0192939 0.0197128
          0.0201301 0.0205456 0.0209594 0.0213716 0.0217821 0.022191 0.0225982 0.0230039 0.023408 0.0238105 0.0242115 0.024611
          0.025009 0.0254056 0.0258007 0.0261943 0.0265866 0.0269775 0.027367 0.0277552 0.028142 0.0285276 0.0289118 0.0292949
          0.0296766 0.0300572 0.0304365 0.0308146 0.0311916 0.0315674 0.0319421 0.0323156 0.0326881 0.0330594 0.0334297 0.0337989
          0.0341671 0.0345343 0.0349004 0.0352655 0.0356296 0.0359927 0.0363549 0.0367161 0.0370763 0.0374356 0.037794 0.0381515
          0.038508 0.0388636 0.0392184 0.0395722 0.0399252 0.0402772 0.0406284 0.0409787 0.0413282 0.0416768 0.0420245 0.0423713
          0.0427173 0.0430625 0.0434067 0.0437501 0.0440927 0.0444344 0.0447753 0.0451153 0.0454544 0.0457928 0.0461303 0.046467
          0.046803 0.0471381 0.0474725 0.0478061 0.048139 0.0484712 0.0488028 0.0491336 0.0494638 0.0497934 0.0501224 0.0504508
          0.0507787 0.0511061 0.0514331 0.0517596 0.0520857 0.0524115 0.052737 0.0530623 0.0533873 0.0537121 0.0540368 0.0543613
          0.0546857 0.05501 0.0553342 0.0556583 0.0559825 0.0563066 0.0566308 0.0569551 0.0572795 0.0576041 0.0579289 0.0582539
          0.0585793 0.058905 0.0592311 0.0595577 0.0598847 0.0602122 0.0605403 0.0608689 0.0611983 0.0615283 0.0618592 0.0621909
          0.0625234 0.0628568 0.0631912 0.0635266 0.0638631 0.0642006 0.0645391 0.0648788 0.0652197 0.0655618 0.0659051 0.0662496
          0.0665954 0.0669425 0.0672909 0.0676406 0.0679918 0.0683443 0.0686982 0.0690536 0.0694105 0.0697688 0.0701287 0.0704901
          0.0708531 0.0712177 0.0715839 0.0719518 0.0723213 0.0726926 0.0730655 0.0734403 0.0738168 0.0741952 0.0745755 0.0749576
          0.0753417 0.0757278 0.0761159 0.076506 0.0768983 0.0772927 0.0776893 0.0780882 0.0784894 0.0788929 0.0792989 0.0797074
          0.0801185 0.0805322 0.0809486 0.0813678 0.0817899 0.082215 0.0826432 0.0830745 0.0835092 0.0839474 0.0843891 0.0848345
          0.0852838 0.0857372 0.0861948 0.0866569 0.0871237 0.0875954 0.0880724 0.088555 0.0890435 0.0895383 0.0900399 0.0905489
          0.0910658 0.0915911 0.0921253 0.0926691 0.0932229 0.0937875 0.0943635 0.0949517 0.0955525 0.0961656 0.096474
        </DataArray>
        <DataArray type="Float32" Name="filterVelocity_n" NumberOfComponents="1" format="ascii">
          0.088888 0.0890218 0.0892621 0.089453 0.0896018 0.0897139 0.0897938 0.089845 0.0898705 0.0898732 0.0898554 0.0898194
          0.0897669 0.0896999 0.0896198 0.0895282 0.0894262 0.0893151 0.0891959 0.0890696 0.088937 0.0887989 0.0886559 0.0885087
          0.0883578 0.0882038 0.088047 0.087888 0.0877269 0.0875643 0.0874004 0.0872354 0.0870696 0.0869032 0.0867365 0.0865696
          0.0864026 0.0862358 0.0860692 0.085903 0.0857374 0.0855723 0.085408 0.0852444 0.0850818 0.0849201 0.0847595 0.0845999
          0.0844416 0.0842844 0.0841285 0.083974 0.0838208 0.083669 0.0835187 0.0833699 0.0832227 0.083077 0.0829329 0.0827905
          0.0826497 0.0825107 0.0823734 0.0822378 0.0821041 0.0819721 0.081842 0.0817138 0.0815874 0.081463 0.0813406 0.0812201
          0.0811016 0.0809851 0.0808707 0.0807583 0.080648 0.0805399 0.0804339 0.08033 0.0802284 0.080129 0.0800318 0.0799369
          0.0798443 0.0797541 0.0796662 0.0795807 0.0794976 0.0794169 0.0793388 0.0792631 0.07919 0.0791195 0.0790516 0.0789863
          0.0789237 0.0788638 0.0788067 0.0787524 0.078701 0.0786524 0.0786067 0.078564 0.0785244 0.0784878 0.0784543 0.078424
          0.0783969 0.0783731 0.0783526 0.0783355 0.0783218 0.0783117 0.078305 0.078302 0.0783026 0.078307 0.0783151 0.078327
          0.0783428 0.0783626 0.0783863 0.0784141 0.0784459 0.0784819 0.0785222 0.0785667 0.0786155 0.0786687 0.0787263 0.0787885
          0.0788552 0.0789265 0.0790025 0.0790833 0.0791688 0.0792592 0.0793546 0.0794549 0.0795603 0.0796708 0.0797866 0.0799077
          0.0800343 0.0801665 0.0803043 0.080448 0.0805975 0.0807531 0.0809148 0.0810828 0.0812571 0.081438 0.0816255 0.0818199
          0.0820211 0.0822295 0.0824451 0.0826682 0.0828989 0.0831373 0.0833838 0.0836385 0.0839016 0.0841733 0.0844538 0.0847433
          0.0850422 0.0853506 0.0856688 0.0859972 0.0863361 0.0866857 0.0870465 0.0874188 0.0878029 0.0881994 0.0886086 0.0890309
          0.089467 0.0899171 0.090382 0.0908621 0.0913581 0.0918705 0.0924 0.0929473 0.0935131 0.0940983 0.0947035 0.0953297
          0.0959779 0.0966488 0.0973437 0.0980635 0.0988095 0.0995828 0.100385 0.101217 0.10208 0.102977 0.103909 0.104877
          0.105884 0.106931 0.108021 0.109157 0.110341 0.111575 0.112863 0.114207 0.115613 0.117082 0.11862 0.120231
          0.12192 0.123692 0.125554 0.127511 0.129571 0.131742 0.134032 0.136451 0.13901 0.141721 0.144598 0.147654
          0.150908 0.154379 0.158087 0.162059 0.166322 0.17091 0.175859 0.181215 0.187029 0.193362 0.200285 0.207886
          0.216269 0.22556 0.235918 0.247542 0.260681 0.275659 0.292901 0.312977 0.336671 0.365092 0.379892
        </DataArray>
        <DataArray type="Float32" Name="temperature" NumberOfComponents="1" format="ascii">
          299.75 299.75 299.75 299.75 299.75 299.75 299.75 299.75 299.75 299.75 299.75 299.75
          299.75 299.75 299.75 299.75 299.75 299.75 299.75 299.75 299.75 299.75 299.75 299.75
          299.75 299.75 299.75 299.75 299.75 299.75 299.75 299.75 299.75 299.75 299.75 299.75
          299.75 299.75 299.75 299.75 299.75 299.75 299.75 299.75 299.75 299.75 299.75 299.75
          299.75 299.75 299.75 299.75 299.75 299.75 299.75 299.75 299.75 299.75 299.75 299.75
          299.75 299.75 299.75 299.75 299.75 299.75 299.75 299.75 299.75 299.75 299.75 299.75
          299.75 299.75 299.75 299.75 299.75 299.75 299.75 299.75 299.75 299.75 299.75 299.75
          299.75 299.75 299.75 299.75 299.75 299.75 299.75 299.75 299.75 299.75 299.75 299.75
          299.75 299.75 299.75 299.75 299.75 299.75 299.75 299.75 299.75 299.75 299.75 299.75
          299.75 299.75 299.75 299.75 299.75 299.75 299.75 299.75 299.75 299.75 299.75 299.75
          299.75 299.75 299.75 299.75 299.75 299.75 299.75 299.75 299.75 299.75 299.75 299.75
          299.75 299.75 299.75 299.75 299.75 299.75 299.75 299.75 299.75 299.75 299.75 299.75
          299.75 299.75 299.75 299.75 299.75 299.75 299.75 299.75 299.75 299.75 299.75 299.75
          299.75 299.75 299.75 299.75 299.75 299.75 299.75 299.75 299.75 299.75 299.75 299.75
          299.75 299.75 299.75 299.75 299.75 299.75 299.75 299.75 299.75 299.75 299.75 299.75
          299.75 299.75 299.75 299.75 299.75 299.75 299.75 299.75 299.75 299.75 299.75 299.75
          299.75 299.75 299.75 299.75 299.75 299.75 299.75 299.75 299.75 299.75 299.75 299.75
          299.75 299.75 299.75 299.75 299.75 299.75 299.75 299.75 299.75 299.75 299.75 299.75
          299.75 299.75 299.75 299.75 299.75 299.75 299.75 299.75 299.75 299.75 299.75 299.75
          299.75 299.75 299.75 299.75 299.75 299.75 299.75 299.75 299.75 299.75 299.75 299.75
          299.75 299.75 299.75 299.75 299.75 299.75 299.75 299.75 299.75 299.75 299.75
        </DataArray>
      </PointData>
      <Points>
        <DataArray type="Float32" Name="Coordinates" NumberOfComponents="3" format="ascii">
          0 0 0 0.4 0 0 0.8 0 0 1.2 0 0
          1.6 0 0 2 0 0 2.4 0 0 2.8 0 0
          3.2 0 0 3.6 0 0 4 0 0 4.4 0 0
          4.8 0 0 5.2 0 0 5.6 0 0 6 0 0
          6.4 0 0 6.8 0 0 7.2 0 0 7.6 0 0
          8 0 0 8.4 0 0 8.8 0 0 9.2 0 0
          9.6 0 0 10 0 0 10.4 0 0 10.8 0 0
          11.2 0 0 11.6 0 0 12 0 0 12.4 0 0
          12.8 0 0 13.2 0 0 13.6 0 0 14 0 0
          14.4 0 0 14.8 0 0 15.2 0 0 15.6 0 0
          16 0 0 16.4 0 0 16.8 0 0 17.2 0 0
          17.6 0 0 18 0 0 18.4 0 0 18.8 0 0
          19.2 0 0 19.6 0 0 20 0 0 20.4 0 0
          20.8 0 0 21.2 0 0 21.6 0 0 22 0 0
          22.4 0 0 22.8 0 0 23.2 0 0 23.6 0 0
          24 0 0 24.4 0 0 24.8 0 0 25.2 0 0
          25.6 0 0 26 0 0 26.4 0 0 26.8 0 0
          27.2 0 0 27.6 0 0 28 0 0 28.4 0 0
          28.8 0 0 29.2 0 0 29.6 0 0 30 0 0
          30.4 0 0 30.8 0 0 31.2 0 0 31.6 0 0
          32 0 0 32.4 0 0 32.8 0 0 33.2 0 0
          33.6 0 0 34 0 0 34.4 0 0 34.8 0 0
          35.2 0 0 35.6 0 0 36 0 0 36.4 0 0
          36.8 0 0 37.2 0 0 37.6 0 0 38 0 0
          38.4 0 0 38.8 0 0 39.2 0 0 39.6 0 0
          40 0 0 40.4 0 0 40.8 0 0 41.2 0 0
          41.6 0 0 42 0 0 42.4 0 0 42.8 0 0
          43.2 0 0 43.6 0 0 44 0 0 44.4 0 0
          44.8 0 0 45.2 0 0 45.6 0 0 46 0 0
          46.4 0 0 46.8 0 0 47.2 0 0 47.6 0 0
          48 0 0 48.4 0 0 48.8 0 0 49.2 0 0
          49.6 0 0 50 0 0 50.4 0 0 50.8 0 0
          51.2 0 0 51.6 0 0 52 0 0 52.4 0 0
          52.8 0 0 53.2 0 0 53.6 0 0 54 0 0
          54.4 0 0 54.8 0 0 55.2 0 0 55.6 0 0