<?xml version="1.0"?>
<VTKFile type="PolyData" version="0.1" byte_order="LittleEndian">
  <PolyData>
    <Piece NumberOfLines="250" NumberOfPoints="251">
      <PointData Scalars="pressure_w">
        <DataArray type="Float32" Name="pressure_w" NumberOfComponents="1" format="ascii">
          966689 966652 966570 966461 966329 966176 966005 965816 965610 965387 965147 964890
          964616 964324 964016 963691 963348 962987 962608 962212 961798 961365 960914 960444
          959956 959449 958923 958377 957813 957229 956625 956002 955359 954696 954012 953309
          952586 951841 951077 950292 949485 948658 947810 946941 946051 945140 944207 943252
          942276 941278 940258 939217 938153 937067 935959 934829 933676 932500 931302 930082
          928838 927572 926283 924970 923634 922276 920893 919488 918058 916605 915129 913628
          912104 910555 908982 907386 905764 904119 902449 900754 899035 897291 895522 893729
          891910 890066 888197 886302 884382 882437 880466 878469 876446 874398 872324 870223
          868097 865944 863765 861559 859327 857068 854783 852471 850132 847766 845372 842952
          840504 838030 835527 832997 830440 827854 825241 822600 819932 817234 814509 811756
          808974 806164 803325 800458 797562 794637 791683 788700 785688 782647 779576 776476
          773346 770186 766997 763778 760528 757248 753938 750598 747226 743824 740391 736927
          733432 729905 726346 722756 719133 715479 711792 708073 704321 700535 696717 692865
          688980 685061 681108 677120 673098 669041 664948 660821 656658 652459 648224 643952
          639644 635300 630918 626499 622042 617548 613015 608443 603833 599183 594494 589764
          584994 580184 575332 570439 565504 560526 555506 550442 545334 540182 534986 529744
          524456 519122 513741 508312 502835 497310 491735 486110 480435 474708 468929 463097
          457211 451271 445276 439224 433116 426949 420724 414439 408093 401684 395213 388677
          382076 375408 368671 361865 354988 348038 341014 333914 326736 319478 312138 304715
          297205 289607 281918 274135 266255 258275 250193 242003 233703 225289 216756 208100
          199315 190397 181337 172128 162761 153225 143507 133593 123465 113101 102486
        </DataArray>
        <DataArray type="Float32" Name="pressure_n" NumberOfComponents="1" format="ascii">
          969309 969187 969049 968895 968726 968542 968343 968130 967901 967658 967399 967124
          966834 966527 966205 965865 965510 965137 964747 964339 963914 963471 963010 962532
          962034 961518 960984 960430 959858 959267 958656 958025 957375 956706 956016 955307
          954577 953827 953057 952266 951454 950622 949769 948895 947999 947083 946145 945186
          944205 943203 942179 941133 940065 938975 937863 936728 935572 934393 933191 931967
          930720 929450 928157 926841 925502 924140 922754 921345 919912 918456 916977 915473
          913945 912394 910818 909219 907595 905946 904274 902576 900855 899108 897336 895540
          893719 891872 890000 888103 886181 884233 882260 880261 878236 876185 874109 872006
          869877 867722 865541 863333 861099 858838 856551 854236 851895 849527 847132 844710
          842260 839783 837279 834747 832188 829601 826986 824343 821673 818974 816247 813492
          810708 807897 805056 802187 799290 796363 793408 790423 787410 784367 781295 778193
          775062 771901 768710 765489 762238 758957 755646 752304 748931 745528 742093 738628
          735131 731603 728043 724452 720828 717172 713484 709764 706010 702224 698405 694552
          690666 686745 682791 678802 674779 670721 666628 662499 658335 654135 649899 645627
          641318 636972 632590 628170 623712 619217 614683 610110 605499 600849 596158 591428
          586658 581847 576994 572100 567164 562186 557165 552101 546992 541840 536643 531400
          526112 520777 515396 509967 504489 498964 493388 487763 482087 476360 470581 464748
          458863 452922 446927 440875 434767 428600 422375 416090 409744 403336 396864 390329
          383728 377060 370324 363518 356641 349692 342668 335569 328391 321134 313796 306373
          298865 291268 283580 275798 267920 259942 251861 243673 235376 226964 218433 209780
          200998 192083 183027 173822 164459 154927 145215 135307 125186 114830 104169
        </DataArray>
        <DataArray type="Float32" Name="density_w" NumberOfComponents="1" format="ascii">
          1000 1000 1000 1000 1000 1000 1000 1000 1000 1000 1000 1000
          1000 1000 1000 1000 1000 1000 1000 1000 1000 1000 1000 1000
          1000 1000 1000 1000 1000 1000 1000 1000 1000 1000 1000 1000
          1000 1000 1000 1000 1000 1000 1000 1000 1000 1000 1000 1000
          1000 1000 1000 1000 1000 1000 1000 1000 1000 1000 1000 1000
          1000 1000 1000 1000 1000 1000 1000 1000 1000 1000 1000 1000
          1000 1000 1000 1000 1000 1000 1000 1000 1000 1000 1000 1000
          1000 1000 1000 1000 1000 1000 1000 1000 1000 1000 1000 1000
          1000 1000 1000 1000 1000 1000 1000 1000 1000 1000 1000 1000
          1000 1000 1000 1000 1000 1000 1000 1000 1000 1000 1000 1000
          1000 1000 1000 1000 1000 1000 1000 1000 1000 1000 1000 1000
          1000 1000 1000 1000 1000 1000 1000 1000 1000 1000 1000 1000
          1000 1000 1000 1000 1000 1000 1000 1000 1000 1000 1000 1000
          1000 1000 1000 1000 1000 1000 1000 1000 1000 1000 1000 1000
          1000 1000 1000 1000 1000 1000 1000 1000 1000 1000 1000 1000
          1000 1000 1000 1000 1000 1000 1000 1000 1000 1000 1000 1000
          1000 1000 1000 1000 1000 1000 1000 1000 1000 1000 1000 1000
          1000 1000 1000 1000 1000 1000 1000 1000 1000 1000 1000 1000
          1000 1000 1000 1000 1000 1000 1000 1000 1000 1000 1000 1000
          1000 1000 1000 1000 1000 1000 1000 1000 1000 1000 1000 1000
          1000 1000 1000 1000 1000 1000 1000 1000 1000 1000 1000
        </DataArray>
        <DataArray type="Float32" Name="density_n" NumberOfComponents="1" format="ascii">
          11.2633 11.2619 11.2603 11.2585 11.2566 11.2544 11.2521 11.2496 11.247 11.2441 11.2411 11.2379
          11.2346 11.231 11.2273 11.2233 11.2192 11.2149 11.2103 11.2056 11.2006 11.1955 11.1901 11.1846
          11.1788 11.1728 11.1666 11.1602 11.1535 11.1466 11.1395 11.1322 11.1247 11.1169 11.1089 11.1006
          11.0921 11.0834 11.0745 11.0653 11.0559 11.0462 11.0363 11.0261 11.0157 11.0051 10.9942 10.983
          10.9716 10.96 10.9481 10.9359 10.9235 10.9109 10.8979 10.8847 10.8713 10.8576 10.8436 10.8294
          10.8149 10.8002 10.7851 10.7699 10.7543 10.7385 10.7224 10.706 10.6893 10.6724 10.6552 10.6378
          10.62 10.602 10.5837 10.5651 10.5462 10.5271 10.5076 10.4879 10.4679 10.4476 10.427 10.4061
          10.385 10.3635 10.3418 10.3197 10.2974 10.2748 10.2518 10.2286 10.2051 10.1812 10.1571 10.1327
          10.1079 10.0829 10.0576 10.0319 10.0059 9.97967 9.95309 9.9262 9.89899 9.87147 9.84364 9.81549
          9.78703 9.75825 9.72915 9.69973 9.66999 9.63993 9.60955 9.57884 9.5478 9.51645 9.48476 9.45274
          9.4204 9.38773 9.35472 9.32139 9.28771 9.25371 9.21937 9.18469 9.14967 9.11431 9.07861 9.04257
          9.00619 8.96946 8.93238 8.89495 8.85718 8.81905 8.78057 8.74174 8.70255 8.663 8.6231 8.58283
          8.5422 8.5012 8.45983 8.4181 8.37599 8.33352 8.29066 8.24743 8.20382 8.15982 8.11544 8.07067
          8.02551 7.97995 7.934 7.88766 7.84091 7.79375 7.74619 7.69821 7.64983 7.60102 7.5518 7.50216
          7.45209 7.40159 7.35067 7.29931 7.24751 7.19527 7.14259 7.08946 7.03588 6.98184 6.92734 6.87238
          6.81694 6.76104 6.70465 6.64778 6.59043 6.53258 6.47424 6.41539 6.35603 6.29616 6.23577 6.17485
          6.1134 6.05141 5.98888 5.92579 5.86215 5.79794 5.73315 5.66779 5.60183 5.53528 5.46813 5.40036
          5.33197 5.26294 5.19327 5.12296 5.05197 4.98032 4.90798 4.83495 4.76121 4.68674 4.61155 4.5356
          4.4589 4.38142 4.30315 4.22406 4.14416 4.06341 3.98179 3.89929 3.81589 3.73157 3.64629 3.56005
          3.4728 3.38452 3.29519 3.20476 3.11322 3.02051 2.92661 2.83147 2.73505 2.63731 2.53819 2.43763
          2.33559 2.232 2.12676 2.0198 1.91101 1.80025 1.68739 1.57226 1.45465 1.33432 1.21044
        </DataArray>
        <DataArray type="Float32" Name="saturation_w" NumberOfComponents="1" format="ascii">
          0.282766 0.329474 0.364779 0.393946 0.419108 0.441385 0.461449 0.479739 0.496563 0.512141 0.526643 0.5402
          0.552918 0.564881 0.576164 0.586827 0.596923 0.606499 0.615596 0.624249 0.632492 0.640353 0.647859 0.655034
          0.661899 0.668476 0.674781 0.680832 0.686644 0.692232 0.697608 0.702785 0.707774 0.712586 0.717229 0.721713
          0.726047 0.730237 0.734292 0.738219 0.742022 0.745709 0.749285 0.752755 0.756124 0.759396 0.762576 0.765668
          0.768676 0.771603 0.774453 0.777228 0.779932 0.782568 0.785138 0.787644 0.790091 0.792478 0.79481 0.797087
          0.799312 0.801486 0.803612 0.805691 0.807724 0.809714 0.811661 0.813567 0.815433 0.817261 0.819052 0.820806
          0.822526 0.824211 0.825864 0.827484 0.829074 0.830633 0.832163 0.833664 0.835137 0.836584 0.838004 0.839398
          0.840768 0.842113 0.843434 0.844733 0.846008 0.847262 0.848494 0.849705 0.850895 0.852066 0.853216 0.854348
          0.85546 0.856554 0.857631 0.858689 0.85973 0.860754 0.861761 0.862752 0.863727 0.864686 0.86563 0.866558
          0.867471 0.86837 0.869254 0.870123 0.870979 0.871821 0.87265 0.873465 0.874267 0.875056 0.875832 0.876597
          0.877348 0.878088 0.878816 0.879533 0.880238 0.880932 0.881615 0.882287 0.882949 0.883601 0.884242 0.884874
          0.885496 0.886108 0.886711 0.887305 0.887889 0.888465 0.889032 0.88959 0.89014 0.890681 0.891214 0.891739
          0.892256 0.892766 0.893267 0.893761 0.894248 0.894728 0.8952 0.895666 0.896124 0.896576 0.89702 0.897459
          0.89789 0.898315 0.898734 0.899146 0.899551 0.899951 0.900344 0.900729 0.901108 0.901481 0.901846 0.902205
          0.902557 0.902903 0.903243 0.903576 0.903902 0.904222 0.904536 0.904844 0.905145 0.905439 0.905727 0.906009
          0.906284 0.906552 0.906814 0.907069 0.907317 0.907559 0.907793 0.90802 0.90824 0.908452 0.908657 0.908855
          0.909044 0.909226 0.909399 0.909565 0.909721 0.909869 0.910008 0.910138 0.910258 0.910369 0.91047 0.91056
          0.91064 0.910708 0.910766 0.910811 0.910844 0.910865 0.910872 0.910866 0.910845 0.910809 0.910758 0.91069
          0.910605 0.910502 0.910381 0.910239 0.910076 0.909891 0.909683 0.909449 0.909189 0.908901 0.908582 0.90823
          0.907844 0.90742 0.906956 0.906447 0.90589 0.90528 0.904613 0.903883 0.903082 0.902202 0.901235 0.900168
          0.898991 0.897694 0.896259 0.894666 0.892889 0.890897 0.888649 0.886092 0.883159 0.879994 0.898939
        </DataArray>
        <DataArray type="Float32" Name="saturation_n" NumberOfComponents="1" format="ascii">
          0.717234 0.670526 0.635221 0.606054 0.580892 0.558615 0.538551 0.520261 0.503437 0.487859 0.473357 0.4598
          0.447082 0.435119 0.423836 0.413173 0.403077 0.393501 0.384404 0.375751 0.367508 0.359647 0.352141 0.344966
          0.338101 0.331524 0.325219 0.319168 0.313356 0.307768 0.302392 0.297215 0.292226 0.287414 0.282771 0.278287
          0.273953 0.269763 0.265708 0.261781 0.257978 0.254291 0.250715 0.247245 0.243876 0.240604 0.237424 0.234332
          0.231324 0.228397 0.225548 0.222772 0.220068 0.217432 0.214862 0.212356 0.209909 0.207522 0.20519 0.202913
          0.200688 0.198514 0.196388 0.194309 0.192276 0.190286 0.188339 0.186433 0.184567 0.182739 0.180948 0.179194
          0.177474 0.175789 0.174136 0.172516 0.170926 0.169367 0.167837 0.166336 0.164863 0.163416 0.161996 0.160602
          0.159232 0.157887 0.156566 0.155267 0.153992 0.152738 0.151506 0.150295 0.149105 0.147934 0.146784 0.145652
          0.14454 0.143446 0.142369 0.141311 0.14027 0.139246 0.138239 0.137248 0.136273 0.135314 0.13437 0.133442
          0.132529 0.13163 0.130746 0.129877 0.129021 0.128179 0.12735 0.126535 0.125733 0.124944 0.124168 0.123403
          0.122652 0.121912 0.121184 0.120467 0.119762 0.119068 0.118385 0.117713 0.117051 0.116399 0.115758 0.115126
          0.114504 0.113892 0.113289 0.112695 0.112111 0.111535 0.110968 0.11041 0.10986 0.109319 0.108786 0.108261
          0.107744 0.107234 0.106733 0.106239 0.105752 0.105272 0.1048 0.104334 0.103876 0.103424 0.10298 0.102541
          0.10211 0.101685 0.101266 0.100854 0.100449 0.100049 0.0996564 0.0992706 0.0988917 0.0985195 0.098154 0.097795
          0.0974427 0.0970968 0.0967574 0.0964244 0.0960978 0.0957776 0.0954638 0.0951563 0.0948553 0.0945608 0.0942727 0.0939911
          0.093716 0.0934476 0.0931859 0.0929309 0.0926827 0.0924415 0.0922073 0.0919802 0.0917603 0.0915478 0.0913428 0.0911454
          0.0909558 0.0907742 0.0906006 0.0904354 0.0902788 0.0901308 0.0899918 0.0898619 0.0897415 0.0896309 0.0895302 0.0894399
          0.0893603 0.0892916 0.0892344 0.0891889 0.0891557 0.0891352 0.0891279 0.0891343 0.0891551 0.0891908 0.0892422 0.0893099
          0.0893947 0.0894975 0.0896193 0.089761 0.0899237 0.0901087 0.0903172 0.0905507 0.0908109 0.0910994 0.0914183 0.0917696
          0.0921559 0.0925798 0.0930445 0.0935533 0.0941101 0.0947195 0.0953866 0.0961172 0.0969183 0.0977978 0.0987652 0.0998319
          0.101009 0.102306 0.103741 0.105334 0.107111 0.109103 0.111351 0.113908 0.116841 0.120006 0.101061
        </DataArray>
        <DataArray type="Float32" Name="relativePerm_w" NumberOfComponents="1" format="ascii">
          0.0219519 0.0340239 0.0455976 0.0569257 0.0680892 0.0791201 0.0900303 0.100822 0.111491 0.122031 0.132435 0.142695
          0.152802 0.16275 0.172533 0.182146 0.191585 0.200848 0.209932 0.218837 0.227563 0.236111 0.244483 0.25268
          0.260704 0.26856 0.276249 0.283776 0.291143 0.298355 0.305416 0.312328 0.319096 0.325724 0.332215 0.338573
          0.344803 0.350907 0.356889 0.362753 0.368501 0.374138 0.379666 0.385089 0.39041 0.39563 0.400754 0.405784
          0.410723 0.415572 0.420335 0.425014 0.429612 0.434129 0.43857 0.442934 0.447226 0.451446 0.455596 0.459678
          0.463694 0.467646 0.471535 0.475362 0.479129 0.482838 0.48649 0.490086 0.493627 0.497115 0.500551 0.503937
          0.507272 0.510559 0.513798 0.516991 0.520137 0.52324 0.526298 0.529313 0.532287 0.535219 0.53811 0.540962
          0.543775 0.546549 0.549287 0.551987 0.554651 0.557279 0.559872 0.562431 0.564956 0.567447 0.569906 0.572332
          0.574726 0.577089 0.579421 0.581723 0.583994 0.586236 0.588448 0.590631 0.592786 0.594912 0.59701 0.599081
          0.601124 0.60314 0.60513 0.607092 0.609029 0.61094 0.612825 0.614685 0.616519 0.618329 0.620115 0.621877
          0.623614 0.625328 0.627019 0.628687 0.630333 0.631956 0.633557 0.635137 0.636695 0.638233 0.63975 0.641247
          0.642724 0.644181 0.645619 0.647038 0.648438 0.649819 0.651181 0.652525 0.653852 0.65516 0.656451 0.657725
          0.658981 0.660221 0.661445 0.662652 0.663843 0.665019 0.666179 0.667323 0.668452 0.669566 0.670665 0.671749
          0.672819 0.673874 0.674914 0.67594 0.676951 0.677948 0.678935 0.679918 0.680897 0.681871 0.682839 0.683802
          0.684758 0.685707 0.686649 0.687582 0.688506 0.689421 0.690326 0.691221 0.692104 0.692976 0.693835 0.694681
          0.695513 0.696331 0.697135 0.697922 0.698693 0.699448 0.700184 0.700902 0.701601 0.70228 0.702937 0.703574
          0.704188 0.704778 0.705345 0.705886 0.706401 0.706889 0.707349 0.70778 0.70818 0.708549 0.708885 0.709188
          0.709455 0.709685 0.709878 0.710031 0.710143 0.710212 0.710237 0.710215 0.710145 0.710024 0.709852 0.709624
          0.709339 0.708995 0.708588 0.708115 0.707575 0.706962 0.706274 0.705508 0.704659 0.703723 0.702695 0.701571
          0.700346 0.699014 0.697571 0.696009 0.694322 0.692505 0.69055 0.688451 0.686201 0.683795 0.681226 0.678492
          0.675555 0.672332 0.668785 0.664867 0.660523 0.655683 0.650259 0.644142 0.63719 0.629762 0.675424
        </DataArray>
        <DataArray type="Float32" Name="relativePerm_n" NumberOfComponents="1" format="ascii">
          0.56834 0.500953 0.452131 0.413296 0.380945 0.353232 0.329043 0.307644 0.288523 0.271307 0.25571 0.24151
          0.228527 0.216615 0.205652 0.195536 0.186177 0.177499 0.169437 0.161933 0.154934 0.148397 0.142281 0.13655
          0.131171 0.126117 0.121361 0.116879 0.112652 0.108658 0.104882 0.101307 0.0979196 0.0947056 0.0916534 0.0887522
          0.0859918 0.083363 0.0808574 0.0784673 0.0761853 0.0740049 0.0719199 0.0699248 0.0680143 0.0661834 0.0644278 0.0627432
          0.0611257 0.0595718 0.0580779 0.0566411 0.0552582 0.0539267 0.0526438 0.0514072 0.0502147 0.0490641 0.0479534 0.0468808
          0.0458444 0.0448427 0.0438741 0.042937 0.0420302 0.0411523 0.0403021 0.0394784 0.0386801 0.0379061 0.0371555 0.0364273
          0.0357207 0.0350347 0.0343686 0.0337216 0.0330931 0.0324822 0.0318884 0.031311 0.0307494 0.0302031 0.0296715 0.0291542
          0.0286505 0.0281601 0.0276825 0.0272172 0.0267639 0.0263222 0.0258916 0.0254719 0.0250627 0.0246637 0.0242745 0.0238948
          0.0235244 0.023163 0.0228103 0.022466 0.02213 0.0218019 0.0214816 0.0211689 0.0208635 0.0205652 0.0202738 0.0199893
          0.0197112 0.0194396 0.0191743 0.018915 0.0186616 0.018414 0.018172 0.0179355 0.0177043 0.0174782 0.0172573 0.0170412
          0.01683 0.0166234 0.0164214 0.0162238 0.0160305 0.0158414 0.0156564 0.0154754 0.0152982 0.0151248 0.0149551 0.014789
          0.0146263 0.0144669 0.0143109 0.0141581 0.0140085 0.013862 0.0137184 0.0135778 0.0134401 0.0133051 0.0131729 0.0130433
          0.0129163 0.0127919 0.0126699 0.0125503 0.012433 0.012318 0.0122053 0.0120948 0.0119864 0.0118801 0.0117759 0.0116737
          0.0115735 0.0114752 0.0113789 0.0112844 0.0111918 0.011101 0.0110121 0.0109251 0.01084 0.0107567 0.0106752 0.0105956
          0.0105176 0.0104414 0.0103669 0.0102941 0.0102229 0.0101533 0.0100854 0.0100191 0.00995437 0.00989123 0.00982969 0.00976972
          0.00971133 0.00965451 0.00959927 0.00954561 0.00949353 0.00944305 0.00939416 0.00934689 0.00930123 0.00925721 0.00921485 0.00917415
          0.00913515 0.00909786 0.00906231 0.00902853 0.00899655 0.0089664 0.00893812 0.00891176 0.00888734 0.00886493 0.00884457 0.00882632
          0.00881024 0.0087964 0.00878486 0.00877571 0.00876902 0.00876489 0.00876343 0.00876472 0.0087689 0.00877609 0.00878644 0.00880008
          0.0088172 0.00883796 0.00886259 0.00889128 0.0089243 0.0089619 0.00900439 0.0090521 0.00910539 0.00916468 0.00923043 0.00930316
          0.00938346 0.00947199 0.0095695 0.00967686 0.00979505 0.00992524 0.0100687 0.0102271 0.0104022 0.0105962 0.0108116 0.0110518
          0.0113198 0.011619 0.0119546 0.0123328 0.0127617 0.0132515 0.0138154 0.0144712 0.0152423 0.0160973 0.0113318
        </DataArray>
        <DataArray type="Float32" Name="porosity" NumberOfComponents="1" format="ascii">
          0.558 0.558 0.558 0.558 0.558 0.558 0.558 0.558 0.558 0.558 0.558 0.558
          0.558 0.558 0.558 0.558 0.558 0.558 0.558 0.558 0.558 0.558 0.558 0.558
          0.558 0.558 0.558 0.558 0.558 0.558 0.558 0.558 0.558 0.558 0.558 0.558
          0.558 0.558 0.558 0.558 0.558 0.558 0.558 0.558 0.558 0.558 0.558 0.558
          0.558 0.558 0.558 0.558 0.558 0.558 0.558 0.558 0.558 0.558 0.558 0.558
          0.558 0.558 0.558 0.558 0.558 0.558 0.558 0.558 0.558 0.558 0.558 0.558
          0.558 0.558 0.558 0.558 0.558 0.558 0.558 0.558 0.558 0.558 0.558 0.558
          0.558 0.558 0.558 0.558 0.558 0.558 0.558 0.558 0.558 0.558 0.558 0.558
          0.558 0.558 0.558 0.558 0.558 0.558 0.558 0.558 0.558 0.558 0.558 0.558
          0.558 0.558 0.558 0.558 0.558 0.558 0.558 0.558 0.558 0.558 0.558 0.558
          0.558 0.558 0.558 0.558 0.558 0.558 0.558 0.558 0.558 0.558 0.558 0.558
          0.558 0.558 0.558 0.558 0.558 0.558 0.558 0.558 0.558 0.558 0.558 0.558
          0.558 0.558 0.558 0.558 0.558 0.558 0.558 0.558 0.558 0.558 0.558 0.558
          0.558 0.558 0.558 0.558 0.558 0.558 0.558 0.558 0.558 0.558 0.558 0.558
          0.558 0.558 0.558 0.558 0.558 0.558 0.558 0.558 0.558 0.558 0.558 0.558
          0.558 0.558 0.558 0.558 0.558 0.558 0.558 0.558 0.558 0.558 0.558 0.558
          0.558 0.558 0.558 0.558 0.558 0.558 0.558 0.558 0.558 0.558 0.558 0.558
          0.558 0.558 0.558 0.558 0.558 0.558 0.558 0.558 0.558 0.558 0.558 0.558
          0.558 0.558 0.558 0.558 0.558 0.558 0.558 0.558 0.558 0.558 0.558 0.558
          0.558 0.558 0.558 0.558 0.558 0.558 0.558 0.558 0.558 0.558 0.558 0.558
          0.558 0.558 0.558 0.558 0.558 0.558 0.558 0.558 0.558 0.558 0.558
        </DataArray>
        <DataArray type="Float32" Name="filterVelocity_w" NumberOfComponents="1" format="ascii">
          0.000116779 0.000319541 0.000567975 0.000861162 0.00118116 0.00152228 0.00188121 0.00225551 0.00264314 0.00304238 0.00345168 0.00386964
          0.00429503 0.00472672 0.00516371 0.00560509 0.00605006 0.00649789 0.00694797 0.00739971 0.00785263 0.00830629 0.00876032 0.00921437
          0.00966816 0.0101214 0.010574 0.0110256 0.0114762 0.0119255 0.0123736 0.0128201 0.0132652 0.0137087 0.0141506 0.0145908
          0.0150292 0.0154659 0.0159009 0.016334 0.0167654 0.017195 0.0176228 0.0180488 0.018473 0.0188954 0.0193161 0.019735
          0.0201522 0.0205676 0.0209814 0.0213934 0.0218038 0.0222126 0.0226197 0.0230252 0.0234291 0.0238315 0.0242323 0.0246316
          0.0250294 0.0254258 0.0258207 0.0262141 0.0266061 0.0269968 0.027386 0.027774 0.0281605 0.0285458 0.0289298 0.0293125
          0.029694 0.0300742 0.0304532 0.0308311 0.0312077 0.0315832 0.0319575 0.0323307 0.0327028 0.0330738 0.0334437 0.0338125
          0.0341803 0.034547 0.0349127 0.0352774 0.0356411 0.0360038 0.0363655 0.0367262 0.037086 0.0374448 0.0378027 0.0381596
          0.0385157 0.0388708 0.039225 0.0395783 0.0399307 0.0402822 0.0406328 0.0409825 0.0413313 0.0416792 0.0420263 0.0423724
          0.0427177 0.0430621 0.0434057 0.0437483 0.0440901 0.044431 0.0447711 0.0451103 0.0454486 0.0457861 0.0461228 0.0464587
          0.0467938 0.0471281 0.0474616 0.0477944 0.0481264 0.0484578 0.0487884 0.0491184 0.0494478 0.0497766 0.0501049 0.0504326
          0.0507599 0.0510867 0.0514131 0.0517391 0.0520647 0.05239 0.0527149 0.0530395 0.0533639 0.053688 0.054012 0.0543358
          0.0546594 0.0549831 0.0553067 0.0556303 0.055954 0.0562779 0.0566019 0.0569261 0.0572505 0.0575752 0.0579002 0.0582256
          0.0585515 0.0588777 0.0592044 0.0595317 0.0598595 0.0601879 0.0605169 0.0608466 0.061177 0.0615081 0.0618401 0.0621729
          0.0625066 0.0628413 0.0631768 0.0635134 0.063851 0.0641897 0.0645294 0.0648702 0.0652122 0.0655553 0.0658997 0.0662452
          0.066592 0.0669401 0.0672894 0.0676401 0.0679921 0.0683455 0.0687002 0.0690564 0.069414 0.0697731 0.0701336 0.0704957
          0.0708593 0.0712244 0.0715912 0.0719595 0.0723295 0.0727012 0.0730746 0.0734497 0.0738266 0.0742052 0.0745858 0.0749681
          0.0753524 0.0757387 0.0761269 0.0765172 0.0769096 0.077304 0.0777007 0.0780996 0.0785008 0.0789043 0.0793102 0.0797186
          0.0801296 0.0805432 0.0809594 0.0813785 0.0818004 0.0822252 0.0826531 0.0830842 0.0835186 0.0839564 0.0843977 0.0848428
          0.0852916 0.0857445 0.0862016 0.0866631 0.0871293 0.0876003 0.0880765 0.0885581 0.0890456 0.0895392 0.0900396 0.090547
          0.0910622 0.0915857 0.0921179 0.0926597 0.0932117 0.0937746 0.0943495 0.0949373 0.0955392 0.0961552 0.0964657
        </DataArray>
        <DataArray type="Float32" Name="filterVelocity_n" NumberOfComponents="1" format="ascii">
          0.0889487 0.0890847 0.089329 0.089523 0.0896744 0.0897885 0.0898698 0.089922 0.0899483 0.0899514 0.0899337 0.0898975
          0.0898448 0.0897772 0.0896965 0.0896041 0.0895013 0.0893892 0.089269 0.0891416 0.0890078 0.0888684 0.0887242 0.0885757
          0.0884235 0.088268 0.0881099 0.0879494 0.087787 0.0876229 0.0874575 0.087291 0.0871238 0.0869559 0.0867877 0.0866193
          0.0864508 0.0862825 0.0861144 0.0859468 0.0857796 0.0856131 0.0854473 0.0852823 0.0851182 0.084955 0.0847929 0.0846319
          0.0844721 0.0843135 0.0841562 0.0840002 0.0838456 0.0836924 0.0835408 0.0833906 0.0832419 0.0830949 0.0829494 0.0828056
          0.0826635 0.0825231 0.0823845 0.0822476 0.0821125 0.0819793 0.0818479 0.0817183 0.0815907 0.081465 0.0813413 0.0812195
          0.0810998 0.0809821 0.0808664 0.0807528 0.0806413 0.080532 0.0804248 0.0803197 0.0802169 0.0801163 0.080018 0.0799219
          0.0798282 0.0797368 0.0796477 0.0795611 0.0794769 0.0793952 0.0793159 0.0792391 0.079165 0.0790934 0.0790244 0.078958
          0.0788944 0.0788335 0.0787754 0.0787201 0.0786677 0.0786181 0.0785715 0.0785279 0.0784873 0.0784498 0.0784154 0.0783842
          0.0783563 0.0783316 0.0783103 0.0782924 0.078278 0.078267 0.0782596 0.0782558 0.0782557 0.0782593 0.0782667 0.0782779
          0.078293 0.078312 0.078335 0.078362 0.0783932 0.0784284 0.0784679 0.0785116 0.0785596 0.078612 0.0786687 0.0787299
          0.0787956 0.0788658 0.0789407 0.0790202 0.0791046 0.0791938 0.0792879 0.0793871 0.0794913 0.0796008 0.0797155 0.0798355
          0.0799609 0.0800919 0.0802285 0.0803707 0.0805188 0.0806727 0.0808327 0.0809988 0.0811712 0.0813499 0.0815352 0.0817271
          0.0819259 0.0821316 0.0823445 0.0825647 0.0827924 0.0830278 0.0832711 0.0835225 0.0837822 0.0840505 0.0843275 0.0846134
          0.0849086 0.0852133 0.0855279 0.0858525 0.0861875 0.0865332 0.0868901 0.0872584 0.0876386 0.088031 0.0884362 0.0888544
          0.0892863 0.0897323 0.090193 0.0906688 0.0911605 0.0916685 0.0921936 0.0927365 0.0932978 0.0938784 0.094479 0.0951006
          0.0957439 0.0964101 0.0971 0.0978149 0.0985557 0.0993239 0.100121 0.100947 0.101805 0.102696 0.103622 0.104584
          0.105585 0.106626 0.10771 0.108839 0.110016 0.111243 0.112524 0.113861 0.115259 0.11672 0.11825 0.119852
          0.121532 0.123295 0.125147 0.127094 0.129143 0.131303 0.133581 0.135988 0.138535 0.141232 0.144094 0.147135
          0.150373 0.153827 0.157517 0.161469 0.165712 0.170277 0.175203 0.180533 0.186319 0.192621 0.199511 0.207076
          0.215418 0.224665 0.234973 0.246539 0.259612 0.274513 0.291663 0.311629 0.335186 0.363437 0.378148
        </DataArray>
        <DataArray type="Float32" Name="temperature" NumberOfComponents="1" format="ascii">
          299.75 299.75 299.75 299.75 299.75 299.75 299.75 299.75 299.75 299.75 299.75 299.75
          299.75 299.75 299.75 299.75 299.75 299.75 299.75 299.75 299.75 299.75 299.75 299.75
          299.75 299.75 299.75 299.75 299.75 299.75 299.75 299.75 299.75 299.75 299.75 299.75
          299.75 299.75 299.75 299.75 299.75 299.75 299.75 299.75 299.75 299.75 299.75 299.75
          299.75 299.75 299.75 299.75 299.75 299.75 299.75 299.75 299.75 299.75 299.75 299.75
          299.75 299.75 299.75 299.75 299.75 299.75 299.75 299.75 299.75 299.75 299.75 299.75
          299.75 299.75 299.75 299.75 299.75 299.75 299.75 299.75 299.75 299.75 299.75 299.75
          299.75 299.75 299.75 299.75 299.75 299.75 299.75 299.75 299.75 299.75 299.75 299.75
          299.75 299.75 299.75 299.75 299.75 299.75 299.75 299.75 299.75 299.75 299.75 299.75
          299.75 299.75 299.75 299.75 299.75 299.75 299.75 299.75 299.75 299.75 299.75 299.75
          299.75 299.75 299.75 299.75 299.75 299.75 299.75 299.75 299.75 299.75 299.75 299.75
          299.75 299.75 299.75 299.75 299.75 299.75 299.75 299.75 299.75 299.75 299.75 299.75
          299.75 299.75 299.75 299.75 299.75 299.75 299.75 299.75 299.75 299.75 299.75 299.75
          299.75 299.75 299.75 299.75 299.75 299.75 299.75 299.75 299.75 299.75 299.75 299.75
          299.75 299.75 299.75 299.75 299.75 299.75 299.75 299.75 299.75 299.75 299.75 299.75
          299.75 299.75 299.75 299.75 299.75 299.75 299.75 299.75 299.75 299.75 299.75 299.75
          299.75 299.75 299.75 299.75 299.75 299.75 299.75 299.75 299.75 299.75 299.75 299.75
          299.75 299.75 299.75 299.75 299.75 299.75 299.75 299.75 299.75 299.75 299.75 299.75
          299.75 299.75 299.75 299.75 299.75 299.75 299.75 299.75 299.75 299.75 299.75 299.75
          299.75 299.75 299.75 299.75 299.75 299.75 299.75 299.75 299.75 299.75 299.75 299.75
          299.75 299.75 299.75 299.75 299.75 299.75 299.75 299.75 299.75 299.75 299.75
        </DataArray>
      </PointData>
      <Points>
        <DataArray type="Float32" Name="Coordinates" NumberOfComponents="3" format="ascii">
          0 0 0 0.4 0 0 0.8 0 0 1.2 0 0
          1.6 0 0 2 0 0 2.4 0 0 2.8 0 0
          3.2 0 0 3.6 0 0 4 0 0 4.4 0 0
          4.8 0 0 5.2 0 0 5.6 0 0 6 0 0
          6.4 0 0 6.8 0 0 7.2 0 0 7.6 0 0
          8 0 0 8.4 0 0 8.8 0 0 9.2 0 0
          9.6 0 0 10 0 0 10.4 0 0 10.8 0 0
          11.2 0 0 11.6 0 0 12 0 0 12.4 0 0
          12.8 0 0 13.2 0 0 13.6 0 0 14 0 0
          14.4 0 0 14.8 0 0 15.2 0 0 15.6 0 0
          16 0 0 16.4 0 0 16.8 0 0 17.2 0 0
          17.6 0 0 18 0 0 18.4 0 0 18.8 0 0
          19.2 0 0 19.6 0 0 20 0 0 20.4 0 0
          20.8 0 0 21.2 0 0 21.6 0 0 22 0 0
          22.4 0 0 22.8 0 0 23.2 0 0 23.6 0 0
          24 0 0 24.4 0 0 24.8 0 0 25.2 0 0
          25.6 0 0 26 0 0 26.4 0 0 26.8 0 0
          27.2 0 0 27.6 0 0 28 0 0 28.4 0 0
          28.8 0 0 29.2 0 0 29.6 0 0 30 0 0
          30.4 0 0 30.8 0 0 31.2 0 0 31.6 0 0
          32 0 0 32.4 0 0 32.8 0 0 33.2 0 0
          33.6 0 0 34 0 0 34.4 0 0 34.8 0 0
          35.2 0 0 35.6 0 0 36 0 0 36.4 0 0
          36.8 0 0 37.2 0 0 37.6 0 0 38 0 0
          38.4 0 0 38.8 0 0 39.2 0 0 39.6 0 0
          40 0 0 40.4 0 0 40.8 0 0 41.2 0 0
          41.6 0 0 42 0 0 42.4 0 0 42.8 0 0
          43.2 0 0 43.6 0 0 44 0 0 44.4 0 0
          44.8 0 0 45.2 0 0 45.6 0 0 46 0 0
          46.4 0 0 46.8 0 0 47.2 0 0 47.6 0 0
          48 0 0 48.4 0 0 48.8 0 0 49.2 0 0
          49.6 0 0 50 0 0 50.4 0 0 50.8 0 0
          51.2 0 0 51.6 0 0 52 0 0 52.4 0 0
          52.8 0 0 53.2 0 0 53.6 0 0 54 0 0
          54.4 0 0 54.8 0 0 55.2 0 0 55.6 0 0