<?xml version="1.0"?>
<VTKFile type="PolyData" version="0.1" byte_order="LittleEndian">
  <PolyData>
    <Piece NumberOfLines="250" NumberOfPoints="251">
      <PointData Scalars="pressure_w">
        <DataArray type="Float32" Name="pressure_w" NumberOfComponents="1" format="ascii">
          966538 966500 966419 966310 966177 966025 965854 965665 965458 965235 964995 964738
          964464 964173 963864 963539 963196 962835 962456 962060 961645 961213 960762 960292
          959804 959296 958770 958225 957660 957076 956472 955849 955206 954543 953859 953156
          952432 951688 950924 950138 949332 948505 947657 946788 945898 944986 944053 943098
          942122 941124 940104 939062 937999 936913 935805 934674 933521 932346 931148 929927
          928684 927417 926128 924815 923480 922121 920738 919333 917903 916450 914973 913473
          911948 910400 908827 907230 905609 903964 902293 900599 898880 897135 895367 893573
          891754 889910 888040 886146 884226 882280 880309 878313 876290 874242 872167 870067
          867940 865787 863608 861402 859170 856911 854626 852314 849974 847608 845215 842794
          840347 837872 835369 832839 830282 827696 825083 822442 819773 817076 814350 811597
          808815 806004 803166 800298 797402 794477 791522 788539 785527 782485 779414 776314
          773184 770024 766834 763615 760365 757085 753774 750433 747061 743659 740225 736760
          733264 729737 726178 722587 718964 715309 711621 707901 704149 700363 696544 692692
          688806 684886 680932 676944 672921 668863 664770 660642 656479 652279 648044 643772
          639464 635119 630736 626317 621860 617365 612832 608260 603649 598999 594310 589580
          584810 580000 575148 570255 565320 560342 555322 550258 545151 540000 534803 529562
          524274 518940 513560 508132 502656 497131 491557 485933 480258 474532 468754 462923
          457038 451100 445105 439055 432948 426783 420559 414276 407931 401525 395055 388521
          381922 375256 368522 361718 354843 347896 340874 333776 326601 319346 312010 304590
          297083 289489 281803 274024 266148 258172 250094 241909 233613 225204 216676 208025
          199246 190333 181279 172076 162715 153186 143474 133567 123447 113091 102484
        </DataArray>
        <DataArray type="Float32" Name="pressure_n" NumberOfComponents="1" format="ascii">
          969157 969036 968897 968743 968574 968390 968192 967978 967750 967506 967247 966972
          966682 966375 966053 965713 965357 964984 964594 964187 963762 963319 962858 962379
          961882 961366 960831 960278 959705 959114 958503 957872 957222 956553 955863 955154
          954424 953674 952903 952112 951301 950468 949615 948741 947846 946929 945991 945032
          944051 943049 942025 940979 939911 938821 937709 936574 935417 934238 933036 931812
          930565 929295 928002 926686 925347 923985 922599 921190 919757 918301 916821 915318
          913790 912239 910663 909063 907439 905791 904118 902421 900699 898952 897181 895384
          893563 891716 889844 887947 886025 884077 882104 880104 878080 876029 873952 871849
          869721 867566 865384 863176 860942 858681 856394 854079 851738 849370 846975 844552
          842102 839626 837121 834589 832030 829443 826828 824185 821514 818815 816088 813333
          810549 807737 804897 802027 799130 796203 793247 790262 787249 784205 781133 778031
          774900 771738 768547 765326 762075 758793 755481 752139 748766 745362 741927 738461
          734964 731435 727875 724283 720659 717002 713314 709592 705839 702052 698232 694378
          690491 686570 682615 678626 674602 670544 666450 662321 658156 653955 649719 645446
          641137 636791 632408 627988 623530 619034 614500 609927 605316 600665 595975 591245
          586474 581663 576810 571917 566981 562003 556982 551917 546809 541657 536460 531218
          525930 520596 515215 509786 504310 498785 493210 487586 481911 476184 470406 464575
          458690 452751 446757 440706 434599 428434 422210 415927 409582 403176 396706 390173
          383574 376908 370174 363370 356496 349549 342528 335431 328257 321003 313667 306248
          298743 291149 283465 275687 267812 259838 251762 243579 235286 226879 218353 209705
          200929 192019 182969 173770 164414 154889 145183 135282 125168 114820 104167
        </DataArray>
        <DataArray type="Float32" Name="density_w" NumberOfComponents="1" format="ascii">
          1000 1000 1000 1000 1000 1000 1000 1000 1000 1000 1000 1000
          1000 1000 1000 1000 1000 1000 1000 1000 1000 1000 1000 1000
          1000 1000 1000 1000 1000 1000 1000 1000 1000 1000 1000 1000
          1000 1000 1000 1000 1000 1000 1000 1000 1000 1000 1000 1000
          1000 1000 1000 1000 1000 1000 1000 1000 1000 1000 1000 1000
          1000 1000 1000 1000 1000 1000 1000 1000 1000 1000 1000 1000
          1000 1000 1000 1000 1000 1000 1000 1000 1000 1000 1000 1000
          1000 1000 1000 1000 1000 1000 1000 1000 1000 1000 1000 1000
          1000 1000 1000 1000 1000 1000 1000 1000 1000 1000 1000 1000
          1000 1000 1000 1000 1000 1000 1000 1000 1000 1000 1000 1000
          1000 1000 1000 1000 1000 1000 1000 1000 1000 1000 1000 1000
          1000 1000 1000 1000 1000 1000 1000 1000 1000 1000 1000 1000
          1000 1000 1000 1000 1000 1000 1000 1000 1000 1000 1000 1000
          1000 1000 1000 1000 1000 1000 1000 1000 1000 1000 1000 1000
          1000 1000 1000 1000 1000 1000 1000 1000 1000 1000 1000 1000
          1000 1000 1000 1000 1000 1000 1000 1000 1000 1000 1000 1000
          1000 1000 1000 1000 1000 1000 1000 1000 1000 1000 1000 1000
          1000 1000 1000 1000 1000 1000 1000 1000 1000 1000 1000 1000
          1000 1000 1000 1000 1000 1000 1000 1000 1000 1000 1000 1000
          1000 1000 1000 1000 1000 1000 1000 1000 1000 1000 1000 1000
          1000 1000 1000 1000 1000 1000 1000 1000 1000 1000 1000
        </DataArray>
        <DataArray type="Float32" Name="density_n" NumberOfComponents="1" format="ascii">
          11.2616 11.2602 11.2585 11.2568 11.2548 11.2527 11.2503 11.2479 11.2452 11.2424 11.2394 11.2362
          11.2328 11.2292 11.2255 11.2216 11.2174 11.2131 11.2085 11.2038 11.1989 11.1937 11.1884 11.1828
          11.177 11.171 11.1648 11.1584 11.1517 11.1449 11.1378 11.1304 11.1229 11.1151 11.1071 11.0988
          11.0904 11.0817 11.0727 11.0635 11.0541 11.0444 11.0345 11.0243 11.0139 11.0033 10.9924 10.9812
          10.9698 10.9582 10.9463 10.9341 10.9217 10.9091 10.8961 10.883 10.8695 10.8558 10.8418 10.8276
          10.8131 10.7984 10.7833 10.7681 10.7525 10.7367 10.7206 10.7042 10.6875 10.6706 10.6534 10.636
          10.6182 10.6002 10.5819 10.5633 10.5444 10.5253 10.5058 10.4861 10.4661 10.4458 10.4252 10.4043
          10.3832 10.3617 10.34 10.3179 10.2956 10.2729 10.25 10.2268 10.2032 10.1794 10.1553 10.1309
          10.1061 10.0811 10.0557 10.0301 10.0041 9.97784 9.95126 9.92437 9.89716 9.86964 9.84181 9.81366
          9.7852 9.75642 9.72732 9.6979 9.66815 9.63809 9.60771 9.57699 9.54596 9.5146 9.48291 9.4509
          9.41855 9.38587 9.35287 9.31953 9.28585 9.25185 9.2175 9.18282 9.1478 9.11244 9.07674 9.04069
          9.0043 8.96757 8.93049 8.89306 8.85528 8.81715 8.77866 8.73983 8.70063 8.66108 8.62117 8.58089
          8.54025 8.49925 8.45788 8.41614 8.37402 8.33154 8.28868 8.24544 8.20182 8.15781 8.11343 8.06865
          8.02348 7.97792 7.93196 7.88561 7.83885 7.79169 7.74412 7.69614 7.64775 7.59894 7.54971 7.50006
          7.44999 7.39949 7.34856 7.29719 7.24539 7.19315 7.14047 7.08733 7.03375 6.97971 6.92521 6.87024
          6.81481 6.7589 6.70252 6.64565 6.58829 6.53045 6.47211 6.41326 6.3539 6.29404 6.23365 6.17273
          6.11129 6.04931 5.98678 5.9237 5.86006 5.79586 5.73108 5.66573 5.59978 5.53324 5.4661 5.39834
          5.32996 5.26095 5.1913 5.12099 5.05003 4.97839 4.90607 4.83305 4.75933 4.68489 4.60971 4.53379
          4.45711 4.37965 4.30141 4.22235 4.14247 4.06175 3.98017 3.8977 3.81433 3.73004 3.6448 3.55859
          3.47138 3.38314 3.29385 3.20347 3.11197 3.01931 2.92546 2.83038 2.73401 2.63632 2.53726 2.43676
          2.33479 2.23126 2.12609 2.0192 1.91048 1.7998 1.68702 1.57197 1.45445 1.3342 1.21042
        </DataArray>
        <DataArray type="Float32" Name="saturation_w" NumberOfComponents="1" format="ascii">
          0.282788 0.329506 0.364818 0.393988 0.419153 0.441432 0.461498 0.47979 0.496614 0.512193 0.526696 0.540253
          0.55297 0.564933 0.576215 0.586878 0.596973 0.606549 0.615644 0.624297 0.632538 0.640399 0.647904 0.655078
          0.661942 0.668518 0.674822 0.680872 0.686683 0.69227 0.697645 0.702821 0.707809 0.71262 0.717262 0.721745
          0.726078 0.730268 0.734322 0.738247 0.74205 0.745736 0.749311 0.75278 0.756149 0.75942 0.7626 0.765691
          0.768698 0.771624 0.774473 0.777248 0.779951 0.782586 0.785156 0.787662 0.790107 0.792494 0.794825 0.797102
          0.799326 0.8015 0.803625 0.805704 0.807737 0.809726 0.811672 0.813578 0.815444 0.817271 0.819061 0.820815
          0.822534 0.824219 0.825871 0.827491 0.82908 0.830639 0.832169 0.83367 0.835143 0.836589 0.838009 0.839403
          0.840772 0.842117 0.843438 0.844736 0.846011 0.847265 0.848496 0.849707 0.850897 0.852067 0.853218 0.854349
          0.855462 0.856556 0.857631 0.85869 0.85973 0.860754 0.861762 0.862752 0.863727 0.864686 0.865629 0.866558
          0.867471 0.868369 0.869253 0.870123 0.870979 0.871821 0.872649 0.873464 0.874267 0.875056 0.875832 0.876597
          0.877349 0.878089 0.878817 0.879534 0.880239 0.880933 0.881617 0.882289 0.882951 0.883603 0.884245 0.884877
          0.885499 0.886111 0.886715 0.887309 0.887894 0.88847 0.889037 0.889596 0.890146 0.890688 0.891221 0.891746
          0.892264 0.892773 0.893275 0.893769 0.894256 0.894736 0.895208 0.895673 0.896132 0.896583 0.897028 0.897466
          0.897897 0.898321 0.89874 0.899151 0.899556 0.899955 0.900348 0.900733 0.901111 0.901483 0.901848 0.902206
          0.902558 0.902903 0.903242 0.903574 0.9039 0.904219 0.904532 0.904839 0.905139 0.905433 0.90572 0.906001
          0.906275 0.906543 0.906804 0.907058 0.907305 0.907546 0.907779 0.908006 0.908225 0.908436 0.90864 0.908837
          0.909026 0.909206 0.909379 0.909543 0.909699 0.909846 0.909984 0.910113 0.910232 0.910342 0.910442 0.910531
          0.91061 0.910677 0.910734 0.910778 0.91081 0.91083 0.910836 0.910828 0.910806 0.91077 0.910717 0.910648
          0.910562 0.910458 0.910335 0.910192 0.910028 0.909842 0.909632 0.909397 0.909136 0.908846 0.908526 0.908173
          0.907785 0.90736 0.906894 0.906383 0.905825 0.905214 0.904545 0.903813 0.90301 0.902129 0.90116 0.900091
          0.898913 0.897614 0.896178 0.894583 0.892805 0.890811 0.888562 0.886003 0.883069 0.879903 0.898879
        </DataArray>
        <DataArray type="Float32" Name="saturation_n" NumberOfComponents="1" format="ascii">
          0.717212 0.670494 0.635182 0.606012 0.580847 0.558568 0.538502 0.52021 0.503386 0.487807 0.473304 0.459747
          0.44703 0.435067 0.423785 0.413122 0.403027 0.393451 0.384356 0.375703 0.367462 0.359601 0.352096 0.344922
          0.338058 0.331482 0.325178 0.319128 0.313317 0.30773 0.302355 0.297179 0.292191 0.28738 0.282738 0.278255
          0.273922 0.269732 0.265678 0.261753 0.25795 0.254264 0.250689 0.247219 0.243851 0.24058 0.2374 0.234309
          0.231302 0.228376 0.225527 0.222752 0.220049 0.217414 0.214844 0.212338 0.209893 0.207506 0.205175 0.202898
          0.200674 0.1985 0.196375 0.194296 0.192263 0.190274 0.188328 0.186422 0.184556 0.182729 0.180939 0.179185
          0.177466 0.175781 0.174129 0.172509 0.17092 0.169361 0.167831 0.16633 0.164857 0.163411 0.161991 0.160597
          0.159228 0.157883 0.156562 0.155264 0.153989 0.152735 0.151504 0.150293 0.149103 0.147933 0.146782 0.145651
          0.144538 0.143445 0.142369 0.14131 0.14027 0.139246 0.138238 0.137248 0.136273 0.135314 0.134371 0.133442
          0.132529 0.131631 0.130747 0.129877 0.129021 0.128179 0.127351 0.126536 0.125733 0.124944 0.124168 0.123403
          0.122651 0.121911 0.121183 0.120466 0.119761 0.119067 0.118383 0.117711 0.117049 0.116397 0.115755 0.115123
          0.114501 0.113889 0.113285 0.112691 0.112106 0.11153 0.110963 0.110404 0.109854 0.109312 0.108779 0.108254
          0.107736 0.107227 0.106725 0.106231 0.105744 0.105264 0.104792 0.104327 0.103868 0.103417 0.102972 0.102534
          0.102103 0.101679 0.10126 0.100849 0.100444 0.100045 0.0996524 0.0992672 0.0988888 0.0985173 0.0981524 0.0977941
          0.0974424 0.0970972 0.0967585 0.0964262 0.0961003 0.0957808 0.0954678 0.0951611 0.0948608 0.094567 0.0942797 0.0939989
          0.0937246 0.093457 0.0931961 0.0929419 0.0926945 0.0924541 0.0922207 0.0919945 0.0917754 0.0915638 0.0913596 0.0911631
          0.0909744 0.0907937 0.0906211 0.0904568 0.090301 0.0901539 0.0900159 0.089887 0.0897676 0.0896579 0.0895582 0.0894689
          0.0893902 0.0893226 0.0892664 0.0892219 0.0891898 0.0891704 0.0891641 0.0891717 0.0891936 0.0892304 0.0892829 0.0893518
          0.0894378 0.0895418 0.0896648 0.0898077 0.0899717 0.0901579 0.0903677 0.0906026 0.0908641 0.091154 0.0914742 0.091827
          0.0922147 0.0926402 0.0931063 0.0936166 0.0941751 0.0947861 0.0954548 0.0961871 0.0969898 0.0978711 0.0988404 0.099909
          0.101087 0.102386 0.103822 0.105417 0.107195 0.109189 0.111438 0.113997 0.116931 0.120097 0.101121
        </DataArray>
        <DataArray type="Float32" Name="relativePerm_w" NumberOfComponents="1" format="ascii">
          0.0219568 0.0340335 0.0456114 0.0569433 0.0681104 0.0791447 0.0900581 0.100853 0.111524 0.122067 0.132474 0.142735
          0.152845 0.162795 0.172579 0.182193 0.191633 0.200897 0.209981 0.218887 0.227614 0.236162 0.244534 0.252731
          0.260755 0.268611 0.2763 0.283826 0.291193 0.298405 0.305465 0.312376 0.319144 0.325771 0.332262 0.33862
          0.344848 0.350952 0.356933 0.362796 0.368544 0.37418 0.379707 0.385129 0.390449 0.395669 0.400792 0.405821
          0.410759 0.415608 0.42037 0.425048 0.429645 0.434161 0.438601 0.442965 0.447255 0.451474 0.455624 0.459705
          0.463721 0.467671 0.471559 0.475385 0.479152 0.48286 0.486511 0.490106 0.493647 0.497134 0.500569 0.503954
          0.507289 0.510575 0.513813 0.517005 0.520151 0.523253 0.52631 0.529325 0.532298 0.535229 0.53812 0.540971
          0.543783 0.546557 0.549294 0.551994 0.554657 0.557285 0.559877 0.562436 0.56496 0.567451 0.569909 0.572335
          0.574729 0.577092 0.579423 0.581724 0.583995 0.586237 0.588449 0.590632 0.592786 0.594912 0.59701 0.599081
          0.601124 0.60314 0.605129 0.607092 0.609028 0.610939 0.612824 0.614684 0.616519 0.618329 0.620115 0.621877
          0.623615 0.62533 0.627021 0.62869 0.630336 0.631959 0.633561 0.635141 0.6367 0.638238 0.639756 0.641253
          0.642731 0.644189 0.645628 0.647047 0.648448 0.64983 0.651194 0.652539 0.653866 0.655176 0.656467 0.657742
          0.658999 0.66024 0.661464 0.662671 0.663863 0.665038 0.666198 0.667342 0.668471 0.669585 0.670683 0.671767
          0.672835 0.673889 0.674929 0.675953 0.676964 0.677959 0.678945 0.679927 0.680904 0.681876 0.682844 0.683805
          0.684759 0.685706 0.686646 0.687577 0.688499 0.689412 0.690315 0.691207 0.692088 0.692957 0.693814 0.694657
          0.695487 0.696303 0.697103 0.697888 0.698657 0.699408 0.700142 0.700857 0.701553 0.702228 0.702883 0.703517
          0.704127 0.704715 0.705278 0.705816 0.706328 0.706813 0.707269 0.707696 0.708093 0.708459 0.708792 0.709091
          0.709354 0.709581 0.70977 0.70992 0.710028 0.710093 0.710114 0.710089 0.710015 0.709891 0.709715 0.709483
          0.709195 0.708847 0.708436 0.70796 0.707415 0.706799 0.706108 0.705338 0.704486 0.703546 0.702515 0.701388
          0.700161 0.698826 0.69738 0.695816 0.694127 0.692308 0.690352 0.688253 0.686003 0.683597 0.68103 0.678299
          0.67536 0.672134 0.668584 0.664664 0.660317 0.655475 0.65005 0.643931 0.636978 0.629551 0.675275
        </DataArray>
        <DataArray type="Float32" Name="relativePerm_n" NumberOfComponents="1" format="ascii">
          0.568308 0.500907 0.452079 0.413241 0.380888 0.353175 0.328985 0.307586 0.288466 0.271251 0.255655 0.241456
          0.228474 0.216564 0.205603 0.195488 0.18613 0.177455 0.169394 0.161892 0.154895 0.148359 0.142245 0.136515
          0.131138 0.126085 0.12133 0.11685 0.112624 0.108632 0.104857 0.101283 0.097896 0.094683 0.0916318 0.0887314
          0.0859719 0.083344 0.0808393 0.0784498 0.0761686 0.0739889 0.0719047 0.0699102 0.0680003 0.06617 0.064415 0.062731
          0.061114 0.0595606 0.0580672 0.0566308 0.0552484 0.0539173 0.0526349 0.0513987 0.0502066 0.0490564 0.047946 0.0468737
          0.0458377 0.0448363 0.043868 0.0429313 0.0420248 0.0411471 0.0402972 0.0394737 0.0386757 0.0379019 0.0371516 0.0364236
          0.0357172 0.0350314 0.0343655 0.0337187 0.0330903 0.0324797 0.031886 0.0313088 0.0307474 0.0302012 0.0296698 0.0291525
          0.028649 0.0281587 0.0276812 0.027216 0.0267628 0.0263212 0.0258908 0.0254712 0.025062 0.0246631 0.0242739 0.0238943
          0.023524 0.0231626 0.02281 0.0224658 0.0221298 0.0218018 0.0214816 0.0211688 0.0208635 0.0205652 0.0202739 0.0199893
          0.0197113 0.0194397 0.0191744 0.0189151 0.0186617 0.0184141 0.0181721 0.0179355 0.0177043 0.0174782 0.0172572 0.0170412
          0.0168299 0.0166232 0.0164212 0.0162235 0.0160301 0.015841 0.0156559 0.0154749 0.0152977 0.0151242 0.0149544 0.0147882
          0.0146255 0.0144661 0.01431 0.0141571 0.0140074 0.0138607 0.0137171 0.0135764 0.0134385 0.0133035 0.0131712 0.0130416
          0.0129145 0.01279 0.012668 0.0125483 0.0124311 0.0123161 0.0122034 0.0120929 0.0119846 0.0118784 0.0117742 0.0116721
          0.011572 0.0114738 0.0113775 0.0112832 0.0111906 0.0111 0.0110112 0.0109243 0.0108393 0.0107562 0.0106749 0.0105954
          0.0105176 0.0104415 0.0103672 0.0102945 0.0102234 0.010154 0.0100863 0.0100201 0.00995554 0.00989257 0.00983118 0.00977138
          0.00971315 0.00965649 0.00960142 0.00954792 0.00949601 0.00944569 0.00939697 0.00934986 0.00930437 0.00926052 0.00921833 0.0091778
          0.00913897 0.00910186 0.00906649 0.00903288 0.00900108 0.00897112 0.00894302 0.00891684 0.00889262 0.00887039 0.00885023 0.00883217
          0.00881629 0.00880264 0.00879131 0.00878236 0.00877589 0.00877197 0.00877072 0.00877224 0.00877665 0.00878407 0.00879465 0.00880853
          0.00882589 0.00884691 0.00887179 0.00890076 0.00893404 0.00897193 0.0090147 0.00906271 0.00911631 0.00917592 0.009242 0.00931507
          0.00939572 0.00948462 0.00958251 0.00969027 0.00980888 0.0099395 0.0100835 0.0102423 0.0104179 0.0106124 0.0108285 0.0110692
          0.0113378 0.0116376 0.0119738 0.0123526 0.0127822 0.0132727 0.0138375 0.0144942 0.0152662 0.0161221 0.0113456
        </DataArray>
        <DataArray type="Float32" Name="porosity" NumberOfComponents="1" format="ascii">
          0.558 0.558 0.558 0.558 0.558 0.558 0.558 0.558 0.558 0.558 0.558 0.558
          0.558 0.558 0.558 0.558 0.558 0.558 0.558 0.558 0.558 0.558 0.558 0.558
          0.558 0.558 0.558 0.558 0.558 0.558 0.558 0.558 0.558 0.558 0.558 0.558
          0.558 0.558 0.558 0.558 0.558 0.558 0.558 0.558 0.558 0.558 0.558 0.558
          0.558 0.558 0.558 0.558 0.558 0.558 0.558 0.558 0.558 0.558 0.558 0.558
          0.558 0.558 0.558 0.558 0.558 0.558 0.558 0.558 0.558 0.558 0.558 0.558
          0.558 0.558 0.558 0.558 0.558 0.558 0.558 0.558 0.558 0.558 0.558 0.558
          0.558 0.558 0.558 0.558 0.558 0.558 0.558 0.558 0.558 0.558 0.558 0.558
          0.558 0.558 0.558 0.558 0.558 0.558 0.558 0.558 0.558 0.558 0.558 0.558
          0.558 0.558 0.558 0.558 0.558 0.558 0.558 0.558 0.558 0.558 0.558 0.558
          0.558 0.558 0.558 0.558 0.558 0.558 0.558 0.558 0.558 0.558 0.558 0.558
          0.558 0.558 0.558 0.558 0.558 0.558 0.558 0.558 0.558 0.558 0.558 0.558
          0.558 0.558 0.558 0.558 0.558 0.558 0.558 0.558 0.558 0.558 0.558 0.558
          0.558 0.558 0.558 0.558 0.558 0.558 0.558 0.558 0.558 0.558 0.558 0.558
          0.558 0.558 0.558 0.558 0.558 0.558 0.558 0.558 0.558 0.558 0.558 0.558
          0.558 0.558 0.558 0.558 0.558 0.558 0.558 0.558 0.558 0.558 0.558 0.558
          0.558 0.558 0.558 0.558 0.558 0.558 0.558 0.558 0.558 0.558 0.558 0.558
          0.558 0.558 0.558 0.558 0.558 0.558 0.558 0.558 0.558 0.558 0.558 0.558
          0.558 0.558 0.558 0.558 0.558 0.558 0.558 0.558 0.558 0.558 0.558 0.558
          0.558 0.558 0.558 0.558 0.558 0.558 0.558 0.558 0.558 0.558 0.558 0.558
          0.558 0.558 0.558 0.558 0.558 0.558 0.558 0.558 0.558 0.558 0.558
        </DataArray>
        <DataArray type="Float32" Name="filterVelocity_w" NumberOfComponents="1" format="ascii">
          0.000116839 0.000319715 0.000568274 0.000861596 0.00118173 0.00152298 0.00188204 0.00225646 0.00264421 0.00304356 0.00345296 0.00387102
          0.0042965 0.00472827 0.00516533 0.00560678 0.00605181 0.0064997 0.00694982 0.00740161 0.00785457 0.00830826 0.00876231 0.00921639
          0.0096702 0.0101235 0.0105761 0.0110277 0.0114783 0.0119276 0.0123756 0.0128222 0.0132673 0.0137108 0.0141526 0.0145928
          0.0150313 0.015468 0.0159029 0.016336 0.0167674 0.017197 0.0176247 0.0180507 0.0184749 0.0188973 0.019318 0.0197368
          0.020154 0.0205694 0.0209832 0.0213952 0.0218056 0.0222143 0.0226214 0.0230269 0.0234308 0.0238331 0.0242339 0.0246332
          0.025031 0.0254273 0.0258221 0.0262155 0.0266076 0.0269982 0.0273874 0.0277753 0.0281619 0.0285471 0.0289311 0.0293138
          0.0296952 0.0300754 0.0304544 0.0308322 0.0312088 0.0315842 0.0319586 0.0323317 0.0327038 0.0330747 0.0334446 0.0338134
          0.0341812 0.0345479 0.0349136 0.0352783 0.0356419 0.0360046 0.0363663 0.036727 0.0370868 0.0374456 0.0378035 0.0381605
          0.0385165 0.0388716 0.0392258 0.0395791 0.0399315 0.040283 0.0406336 0.0409833 0.0413322 0.0416801 0.0420272 0.0423734
          0.0427187 0.0430631 0.0434067 0.0437494 0.0440912 0.0444322 0.0447723 0.0451115 0.0454499 0.0457875 0.0461243 0.0464602
          0.0467954 0.0471298 0.0474634 0.0477963 0.0481285 0.0484599 0.0487907 0.0491209 0.0494504 0.0497793 0.0501077 0.0504356
          0.050763 0.0510899 0.0514165 0.0517427 0.0520685 0.0523939 0.0527191 0.0530439 0.0533685 0.0536928 0.054017 0.0543409
          0.0546648 0.0549886 0.0553123 0.0556361 0.0559599 0.0562838 0.0566078 0.056932 0.0572564 0.0575811 0.0579061 0.0582315
          0.0585572 0.0588834 0.05921 0.0595371 0.0598647 0.0601929 0.0605218 0.0608512 0.0611814 0.0615123 0.061844 0.0621766
          0.06251 0.0628443 0.0631796 0.0635159 0.0638531 0.0641914 0.0645308 0.0648713 0.0652129 0.0655557 0.0658996 0.0662448
          0.0665912 0.0669389 0.0672878 0.067638 0.0679896 0.0683425 0.0686968 0.0690525 0.0694097 0.0697683 0.0701283 0.0704899
          0.070853 0.0712176 0.0715838 0.0719516 0.0723211 0.0726922 0.073065 0.0734396 0.0738158 0.0741939 0.0745738 0.0749556
          0.0753393 0.0757249 0.0761125 0.0765021 0.0768938 0.0772876 0.0776835 0.0780817 0.0784822 0.0788849 0.0792901 0.0796978
          0.0801079 0.0805207 0.0809362 0.0813544 0.0817754 0.0821995 0.0826265 0.0830567 0.0834902 0.0839271 0.0843675 0.0848116
          0.0852595 0.0857115 0.0861676 0.0866281 0.0870932 0.0875633 0.0880384 0.0885191 0.0890055 0.0894981 0.0899974 0.0905038
          0.091018 0.0915404 0.0920717 0.0926124 0.0931633 0.0937252 0.0942989 0.0948854 0.0954858 0.0961002 0.0964097
        </DataArray>
        <DataArray type="Float32" Name="filterVelocity_n" NumberOfComponents="1" format="ascii">
          0.0889618 0.0890971 0.08934 0.0895328 0.089683 0.0897961 0.0898765 0.0899279 0.0899534 0.0899558 0.0899375 0.0899007
          0.0898474 0.0897794 0.0896983 0.0896055 0.0895023 0.0893899 0.0892694 0.0891417 0.0890077 0.0888682 0.0887238 0.0885751
          0.0884228 0.0882673 0.088109 0.0879485 0.087786 0.0876219 0.0874564 0.08729 0.0871227 0.0869549 0.0867867 0.0866183
          0.0864499 0.0862816 0.0861136 0.085946 0.0857789 0.0856124 0.0854467 0.0852818 0.0851177 0.0849547 0.0847927 0.0846318
          0.0844721 0.0843136 0.0841564 0.0840006 0.0838461 0.083693 0.0835415 0.0833914 0.0832429 0.083096 0.0829507 0.082807
          0.0826651 0.0825248 0.0823863 0.0822496 0.0821146 0.0819815 0.0818503 0.0817209 0.0815934 0.0814679 0.0813443 0.0812227
          0.0811031 0.0809856 0.0808701 0.0807566 0.0806453 0.0805361 0.080429 0.0803242 0.0802215 0.0801211 0.0800229 0.079927
          0.0798334 0.0797421 0.0796533 0.0795668 0.0794827 0.0794011 0.079322 0.0792454 0.0791713 0.0790999 0.079031 0.0789649
          0.0789014 0.0788406 0.0787826 0.0787274 0.0786751 0.0786257 0.0785792 0.0785357 0.0784952 0.0784579 0.0784236 0.0783925
          0.0783647 0.0783402 0.0783189 0.0783011 0.0782868 0.0782759 0.0782686 0.0782649 0.0782648 0.0782685 0.0782759 0.0782872
          0.0783023 0.0783213 0.0783443 0.0783714 0.0784025 0.0784378 0.0784773 0.078521 0.078569 0.0786213 0.078678 0.0787392
          0.0788049 0.0788751 0.07895 0.0790295 0.0791137 0.0792029 0.0792969 0.079396 0.0795002 0.0796095 0.0797242 0.0798441
          0.0799695 0.0801005 0.0802371 0.0803793 0.0805274 0.0806815 0.0808415 0.0810077 0.0811802 0.0813592 0.0815446 0.0817368
          0.0819357 0.0821417 0.0823549 0.0825754 0.0828034 0.0830392 0.0832829 0.0835347 0.0837948 0.0840635 0.0843409 0.0846273
          0.084923 0.0852283 0.0855433 0.0858685 0.086204 0.0865504 0.0869078 0.0872768 0.0876576 0.0880507 0.0884565 0.0888754
          0.089308 0.0897547 0.0902161 0.0906928 0.0911852 0.0916941 0.09222 0.0927638 0.093326 0.0939075 0.094509 0.0951315
          0.0957759 0.096443 0.097134 0.0978499 0.0985919 0.0993612 0.100159 0.100987 0.101846 0.102739 0.103666 0.104629
          0.105631 0.106674 0.10776 0.10889 0.110068 0.111297 0.11258 0.113919 0.115318 0.116781 0.118313 0.119917
          0.121599 0.123365 0.125218 0.127168 0.12922 0.131382 0.133663 0.136073 0.138622 0.141322 0.144187 0.147232
          0.150473 0.153929 0.157623 0.161579 0.165826 0.170395 0.175325 0.180659 0.18645 0.192757 0.199652 0.207221
          0.215569 0.224821 0.235134 0.246705 0.259783 0.274689 0.291844 0.311814 0.335373 0.363623 0.378334
        </DataArray>
        <DataArray type="Float32" Name="temperature" NumberOfComponents="1" format="ascii">
          299.75 299.75 299.75 299.75 299.75 299.75 299.75 299.75 299.75 299.75 299.75 299.75
          299.75 299.75 299.75 299.75 299.75 299.75 299.75 299.75 299.75 299.75 299.75 299.75
          299.75 299.75 299.75 299.75 299.75 299.75 299.75 299.75 299.75 299.75 299.75 299.75
          299.75 299.75 299.75 299.75 299.75 299.75 299.75 299.75 299.75 299.75 299.75 299.75
          299.75 299.75 299.75 299.75 299.75 299.75 299.75 299.75 299.75 299.75 299.75 299.75
          299.75 299.75 299.75 299.75 299.75 299.75 299.75 299.75 299.75 299.75 299.75 299.75
          299.75 299.75 299.75 299.75 299.75 299.75 299.75 299.75 299.75 299.75 299.75 299.75
          299.75 299.75 299.75 299.75 299.75 299.75 299.75 299.75 299.75 299.75 299.75 299.75
          299.75 299.75 299.75 299.75 299.75 299.75 299.75 299.75 299.75 299.75 299.75 299.75
          299.75 299.75 299.75 299.75 299.75 299.75 299.75 299.75 299.75 299.75 299.75 299.75
          299.75 299.75 299.75 299.75 299.75 299.75 299.75 299.75 299.75 299.75 299.75 299.75
          299.75 299.75 299.75 299.75 299.75 299.75 299.75 299.75 299.75 299.75 299.75 299.75
          299.75 299.75 299.75 299.75 299.75 299.75 299.75 299.75 299.75 299.75 299.75 299.75
          299.75 299.75 299.75 299.75 299.75 299.75 299.75 299.75 299.75 299.75 299.75 299.75
          299.75 299.75 299.75 299.75 299.75 299.75 299.75 299.75 299.75 299.75 299.75 299.75
          299.75 299.75 299.75 299.75 299.75 299.75 299.75 299.75 299.75 299.75 299.75 299.75
          299.75 299.75 299.75 299.75 299.75 299.75 299.75 299.75 299.75 299.75 299.75 299.75
          299.75 299.75 299.75 299.75 299.75 299.75 299.75 299.75 299.75 299.75 299.75 299.75
          299.75 299.75 299.75 299.75 299.75 299.75 299.75 299.75 299.75 299.75 299.75 299.75
          299.75 299.75 299.75 299.75 299.75 299.75 299.75 299.75 299.75 299.75 299.75 299.75
          299.75 299.75 299.75 299.75 299.75 299.75 299.75 299.75 299.75 299.75 299.75
        </DataArray>
      </PointData>
      <Points>
        <DataArray type="Float32" Name="Coordinates" NumberOfComponents="3" format="ascii">
          0 0 0 0.4 0 0 0.8 0 0 1.2 0 0
          1.6 0 0 2 0 0 2.4 0 0 2.8 0 0
          3.2 0 0 3.6 0 0 4 0 0 4.4 0 0
          4.8 0 0 5.2 0 0 5.6 0 0 6 0 0
          6.4 0 0 6.8 0 0 7.2 0 0 7.6 0 0
          8 0 0 8.4 0 0 8.8 0 0 9.2 0 0
          9.6 0 0 10 0 0 10.4 0 0 10.8 0 0
          11.2 0 0 11.6 0 0 12 0 0 12.4 0 0
          12.8 0 0 13.2 0 0 13.6 0 0 14 0 0
          14.4 0 0 14.8 0 0 15.2 0 0 15.6 0 0
          16 0 0 16.4 0 0 16.8 0 0 17.2 0 0
          17.6 0 0 18 0 0 18.4 0 0 18.8 0 0
          19.2 0 0 19.6 0 0 20 0 0 20.4 0 0
          20.8 0 0 21.2 0 0 21.6 0 0 22 0 0
          22.4 0 0 22.8 0 0 23.2 0 0 23.6 0 0
          24 0 0 24.4 0 0 24.8 0 0 25.2 0 0
          25.6 0 0 26 0 0 26.4 0 0 26.8 0 0
          27.2 0 0 27.6 0 0 28 0 0 28.4 0 0
          28.8 0 0 29.2 0 0 29.6 0 0 30 0 0
          30.4 0 0 30.8 0 0 31.2 0 0 31.6 0 0
          32 0 0 32.4 0 0 32.8 0 0 33.2 0 0
          33.6 0 0 34 0 0 34.4 0 0 34.8 0 0
          35.2 0 0 35.6 0 0 36 0 0 36.4 0 0
          36.8 0 0 37.2 0 0 37.6 0 0 38 0 0
          38.4 0 0 38.8 0 0 39.2 0 0 39.6 0 0
          40 0 0 40.4 0 0 40.8 0 0 41.2 0 0
          41.6 0 0 42 0 0 42.4 0 0 42.8 0 0
          43.2 0 0 43.6 0 0 44 0 0 44.4 0 0
          44.8 0 0 45.2 0 0 45.6 0 0 46 0 0
          46.4 0 0 46.8 0 0 47.2 0 0 47.6 0 0
          48 0 0 48.4 0 0 48.8 0 0 49.2 0 0
          49.6 0 0 50 0 0 50.4 0 0 50.8 0 0
          51.2 0 0 51.6 0 0 52 0 0 52.4 0 0
          52.8 0 0 53.2 0 0 53.6 0 0 54 0 0
          54.4 0 0 54.8 0 0 55.2 0 0 55.6 0 0