<?xml version="1.0"?>
<VTKFile type="PolyData" version="0.1" byte_order="LittleEndian">
  <PolyData>
    <Piece NumberOfLines="250" NumberOfPoints="251">
      <PointData Scalars="pressure_w">
        <DataArray type="Float32" Name="pressure_w" NumberOfComponents="1" format="ascii">
          262330 262306 262251 262176 262085 261982 261867 261742 261608 261466 261315 261157
          260991 260818 260639 260453 260260 260062 259857 259647 259431 259209 258981 258748
          258510 258267 258018 257765 257506 257242 256974 256700 256422 256139 255852 255559
          255263 254961 254655 254345 254030 253711 253388 253060 252728 252391 252051 251706
          251357 251004 250646 250285 249919 249550 249176 248799 248417 248031 247642 247248
          246851 246449 246044 245635 245222 244805 244384 243959 243531 243098 242662 242222
          241779 241331 240880 240425 239966 239504 239038 238568 238094 237617 237136 236651
          236162 235670 235175 234675 234172 233665 233155 232640 232123 231601 231076 230548
          230015 229479 228940 228396 227849 227299 226745 226187 225625 225060 224492 223919
          223343 222764 222181 221594 221003 220409 219812 219210 218605 217997 217384 216768
          216149 215526 214899 214268 213634 212996 212355 211710 211061 210408 209752 209092
          208428 207761 207090 206415 205737 205055 204369 203679 202986 202289 201588 200883
          200175 199462 198746 198026 197303 196575 195844 195109 194370 193627 192880 192130
          191375 190617 189855 189088 188318 187544 186766 185984 185198 184408 183614 182816
          182014 181208 180398 179583 178765 177942 177116 176285 175450 174611 173767 172920
          172068 171212 170351 169486 168617 167744 166866 165984 165098 164207 163311 162411
          161507 160598 159684 158766 157844 156916 155984 155048 154106 153160 152209 151253
          150293 149327 148357 147382 146401 145416 144425 143430 142429 141424 140412 139396
          138375 137348 136315 135277 134234 133185 132131 131071 130005 128934 127856 126773
          125684 124589 123488 122380 121267 120147 119021 117889 116750 115604 114452 113293
          112127 110955 109775 108588 107394 106193 104984 103768 102545 101321 100166
        </DataArray>
        <DataArray type="Float32" Name="pressure_n" NumberOfComponents="1" format="ascii">
          264837 264750 264652 264544 264426 264300 264166 264025 263876 263720 263557 263388
          263212 263030 262842 262648 262448 262243 262031 261815 261592 261365 261132 260894
          260651 260403 260150 259892 259629 259362 259089 258812 258530 258244 257953 257658
          257358 257054 256745 256432 256114 255792 255466 255136 254801 254463 254120 253773
          253421 253066 252707 252343 251976 251604 251229 250849 250466 250078 249687 249291
          248892 248489 248082 247671 247257 246838 246416 245990 245560 245126 244689 244247
          243802 243354 242901 242445 241985 241521 241054 240583 240108 239630 239147 238662
          238172 237679 237182 236682 236177 235670 235158 234643 234124 233602 233076 232546
          232013 231476 230936 230392 229844 229293 228738 228179 227617 227051 226482 225909
          225332 224752 224168 223580 222989 222395 221796 221194 220589 219979 219366 218750
          218130 217506 216879 216248 215613 214974 214332 213687 213037 212384 211728 211067
          210403 209735 209064 208389 207710 207027 206341 205651 204957 204260 203558 202853
          202144 201432 200716 199995 199271 198544 197812 197077 196337 195594 194847 194096
          193342 192583 191821 191054 190284 189510 188731 187949 187163 186373 185578 184780
          183978 183172 182361 181547 180728 179906 179079 178248 177413 176574 175730 174883
          174031 173175 172314 171449 170580 169707 168829 167947 167061 166170 165274 164374
          163470 162561 161648 160730 159807 158880 157948 157012 156070 155124 154174 153218
          152258 151292 150322 149347 148367 147382 146392 145396 144396 143391 142380 141364
          140343 139316 138284 137247 136204 135155 134101 133042 131976 130905 129828 128746
          127657 126563 125462 124355 123242 122123 120998 119866 118728 117583 116432 115273
          114108 112937 111758 110572 109379 108178 106970 105755 104531 103286 101878
        </DataArray>
        <DataArray type="Float32" Name="density_w" NumberOfComponents="1" format="ascii">
          1000 1000 1000 1000 1000 1000 1000 1000 1000 1000 1000 1000
          1000 1000 1000 1000 1000 1000 1000 1000 1000 1000 1000 1000
          1000 1000 1000 1000 1000 1000 1000 1000 1000 1000 1000 1000
          1000 1000 1000 1000 1000 1000 1000 1000 1000 1000 1000 1000
          1000 1000 1000 1000 1000 1000 1000 1000 1000 1000 1000 1000
          1000 1000 1000 1000 1000 1000 1000 1000 1000 1000 1000 1000
          1000 1000 1000 1000 1000 1000 1000 1000 1000 1000 1000 1000
          1000 1000 1000 1000 1000 1000 1000 1000 1000 1000 1000 1000
          1000 1000 1000 1000 1000 1000 1000 1000 1000 1000 1000 1000
          1000 1000 1000 1000 1000 1000 1000 1000 1000 1000 1000 1000
          1000 1000 1000 1000 1000 1000 1000 1000 1000 1000 1000 1000
          1000 1000 1000 1000 1000 1000 1000 1000 1000 1000 1000 1000
          1000 1000 1000 1000 1000 1000 1000 1000 1000 1000 1000 1000
          1000 1000 1000 1000 1000 1000 1000 1000 1000 1000 1000 1000
          1000 1000 1000 1000 1000 1000 1000 1000 1000 1000 1000 1000
          1000 1000 1000 1000 1000 1000 1000 1000 1000 1000 1000 1000
          1000 1000 1000 1000 1000 1000 1000 1000 1000 1000 1000 1000
          1000 1000 1000 1000 1000 1000 1000 1000 1000 1000 1000 1000
          1000 1000 1000 1000 1000 1000 1000 1000 1000 1000 1000 1000
          1000 1000 1000 1000 1000 1000 1000 1000 1000 1000 1000 1000
          1000 1000 1000 1000 1000 1000 1000 1000 1000 1000 1000
        </DataArray>
        <DataArray type="Float32" Name="density_n" NumberOfComponents="1" format="ascii">
          3.0774 3.07639 3.07525 3.07399 3.07262 3.07116 3.0696 3.06796 3.06623 3.06442 3.06253 3.06056
          3.05852 3.0564 3.05422 3.05196 3.04964 3.04725 3.04479 3.04228 3.03969 3.03705 3.03435 3.03158
          3.02876 3.02587 3.02293 3.01994 3.01688 3.01377 3.01061 3.00739 3.00411 3.00079 2.99741 2.99397
          2.99049 2.98695 2.98336 2.97973 2.97604 2.9723 2.96851 2.96467 2.96078 2.95685 2.95286 2.94883
          2.94475 2.94062 2.93644 2.93222 2.92795 2.92363 2.91927 2.91486 2.9104 2.9059 2.90135 2.89676
          2.89212 2.88743 2.88271 2.87793 2.87311 2.86825 2.86334 2.85839 2.8534 2.84836 2.84327 2.83815
          2.83298 2.82776 2.8225 2.8172 2.81186 2.80647 2.80104 2.79556 2.79005 2.78449 2.77888 2.77324
          2.76755 2.76182 2.75605 2.75023 2.74437 2.73847 2.73253 2.72654 2.72052 2.71445 2.70833 2.70218
          2.69598 2.68975 2.68347 2.67714 2.67078 2.66437 2.65792 2.65143 2.6449 2.63833 2.63171 2.62505
          2.61835 2.61161 2.60482 2.598 2.59113 2.58422 2.57726 2.57027 2.56323 2.55615 2.54903 2.54187
          2.53466 2.52741 2.52012 2.51279 2.50541 2.49799 2.49053 2.48303 2.47549 2.4679 2.46027 2.45259
          2.44488 2.43712 2.42931 2.42147 2.41358 2.40565 2.39767 2.38966 2.38159 2.37349 2.36534 2.35715
          2.34891 2.34063 2.33231 2.32394 2.31553 2.30707 2.29857 2.29002 2.28143 2.2728 2.26412 2.25539
          2.24662 2.23781 2.22895 2.22004 2.21109 2.20209 2.19305 2.18396 2.17483 2.16564 2.15641 2.14714
          2.13782 2.12845 2.11903 2.10957 2.10006 2.0905 2.08089 2.07124 2.06153 2.05178 2.04198 2.03213
          2.02223 2.01228 2.00228 1.99223 1.98214 1.97199 1.96179 1.95154 1.94124 1.93088 1.92048 1.91002
          1.89952 1.88895 1.87834 1.86767 1.85695 1.84618 1.83535 1.82447 1.81353 1.80254 1.79149 1.78039
          1.76923 1.75801 1.74674 1.73541 1.72402 1.71257 1.70107 1.6895 1.67788 1.66619 1.65445 1.64264
          1.63078 1.61885 1.60685 1.5948 1.58268 1.5705 1.55825 1.54594 1.53356 1.52111 1.5086 1.49602
          1.48337 1.47065 1.45786 1.445 1.43207 1.41907 1.40599 1.39284 1.37961 1.36631 1.35293 1.33947
          1.32593 1.31232 1.29862 1.28484 1.27098 1.25703 1.24299 1.22887 1.21465 1.20018 1.18382
        </DataArray>
        <DataArray type="Float32" Name="saturation_w" NumberOfComponents="1" format="ascii">
          0.346427 0.386674 0.416352 0.439927 0.459456 0.476086 0.490534 0.503276 0.514648 0.524898 0.53421 0.542728
          0.550566 0.557816 0.564551 0.570833 0.576713 0.582235 0.587435 0.592345 0.596992 0.601401 0.605591 0.60958
          0.613386 0.617022 0.620501 0.623834 0.627032 0.630104 0.633058 0.635901 0.638641 0.641284 0.643836 0.646301
          0.648685 0.650993 0.653227 0.655392 0.657492 0.659529 0.661508 0.663429 0.665297 0.667114 0.668881 0.670602
          0.672277 0.673909 0.6755 0.677052 0.678565 0.680041 0.681483 0.68289 0.684265 0.685608 0.68692 0.688204
          0.689459 0.690686 0.691887 0.693062 0.694213 0.695339 0.696442 0.697523 0.698581 0.699618 0.700634 0.701631
          0.702607 0.703565 0.704504 0.705426 0.706329 0.707216 0.708086 0.708939 0.709777 0.710599 0.711407 0.712199
          0.712977 0.713741 0.714491 0.715228 0.715952 0.716663 0.717361 0.718047 0.71872 0.719382 0.720032 0.720671
          0.721299 0.721916 0.722522 0.723117 0.723702 0.724277 0.724842 0.725397 0.725942 0.726478 0.727004 0.727521
          0.728029 0.728529 0.729019 0.729501 0.729974 0.730438 0.730895 0.731343 0.731783 0.732215 0.73264 0.733056
          0.733465 0.733866 0.73426 0.734646 0.735025 0.735397 0.735761 0.736119 0.736469 0.736812 0.737149 0.737479
          0.737802 0.738118 0.738427 0.73873 0.739027 0.739317 0.7396 0.739877 0.740148 0.740412 0.74067 0.740922
          0.741168 0.741407 0.74164 0.741868 0.742089 0.742304 0.742513 0.742716 0.742913 0.743104 0.743289 0.743468
          0.743641 0.743808 0.743969 0.744125 0.744274 0.744418 0.744556 0.744687 0.744813 0.744933 0.745048 0.745156
          0.745258 0.745354 0.745445 0.745529 0.745608 0.74568 0.745747 0.745807 0.745862 0.74591 0.745953 0.745989
          0.746019 0.746042 0.74606 0.746071 0.746076 0.746075 0.746067 0.746052 0.746032 0.746004 0.74597 0.74593
          0.745882 0.745828 0.745767 0.745699 0.745624 0.745542 0.745453 0.745356 0.745252 0.745141 0.745022 0.744896
          0.744762 0.74462 0.74447 0.744312 0.744146 0.743971 0.743789 0.743597 0.743397 0.743188 0.74297 0.742743
          0.742507 0.742261 0.742005 0.74174 0.741464 0.741179 0.740883 0.740576 0.740258 0.739929 0.739589 0.739237
          0.738873 0.738497 0.738108 0.737707 0.737293 0.736865 0.736423 0.735967 0.735497 0.735012 0.734511 0.733994
          0.733462 0.732912 0.732345 0.731761 0.731158 0.730537 0.729907 0.729368 0.73006 0.744628 0.887193
        </DataArray>
        <DataArray type="Float32" Name="saturation_n" NumberOfComponents="1" format="ascii">
          0.653573 0.613326 0.583648 0.560073 0.540544 0.523914 0.509466 0.496724 0.485352 0.475102 0.46579 0.457272
          0.449434 0.442184 0.435449 0.429167 0.423287 0.417765 0.412565 0.407655 0.403008 0.398599 0.394409 0.39042
          0.386614 0.382978 0.379499 0.376166 0.372968 0.369896 0.366942 0.364099 0.361359 0.358716 0.356164 0.353699
          0.351315 0.349008 0.346773 0.344608 0.342508 0.340471 0.338492 0.336571 0.334703 0.332886 0.331119 0.329398
          0.327723 0.326091 0.3245 0.322948 0.321435 0.319959 0.318517 0.31711 0.315735 0.314392 0.31308 0.311796
          0.310541 0.309314 0.308113 0.306938 0.305787 0.304661 0.303558 0.302477 0.301419 0.300382 0.299366 0.298369
          0.297393 0.296435 0.295496 0.294574 0.293671 0.292784 0.291914 0.291061 0.290223 0.289401 0.288593 0.287801
          0.287023 0.286259 0.285509 0.284772 0.284048 0.283337 0.282639 0.281953 0.28128 0.280618 0.279968 0.279329
          0.278701 0.278084 0.277478 0.276883 0.276298 0.275723 0.275158 0.274603 0.274058 0.273522 0.272996 0.272479
          0.271971 0.271471 0.270981 0.270499 0.270026 0.269562 0.269105 0.268657 0.268217 0.267785 0.26736 0.266944
          0.266535 0.266134 0.26574 0.265354 0.264975 0.264603 0.264239 0.263881 0.263531 0.263188 0.262851 0.262521
          0.262198 0.261882 0.261573 0.26127 0.260973 0.260683 0.2604 0.260123 0.259852 0.259588 0.25933 0.259078
          0.258832 0.258593 0.25836 0.258132 0.257911 0.257696 0.257487 0.257284 0.257087 0.256896 0.256711 0.256532
          0.256359 0.256192 0.256031 0.255875 0.255726 0.255582 0.255444 0.255313 0.255187 0.255067 0.254952 0.254844
          0.254742 0.254645 0.254555 0.254471 0.254392 0.25432 0.254253 0.254193 0.254138 0.25409 0.254047 0.254011
          0.253981 0.253958 0.25394 0.253929 0.253924 0.253925 0.253933 0.253948 0.253968 0.253996 0.25403 0.25407
          0.254118 0.254172 0.254233 0.254301 0.254376 0.254458 0.254547 0.254644 0.254748 0.254859 0.254978 0.255104
          0.255238 0.25538 0.25553 0.255688 0.255854 0.256029 0.256211 0.256403 0.256603 0.256812 0.25703 0.257257
          0.257493 0.257739 0.257995 0.25826 0.258536 0.258821 0.259117 0.259424 0.259742 0.260071 0.260411 0.260763
          0.261127 0.261503 0.261892 0.262293 0.262707 0.263135 0.263577 0.264033 0.264503 0.264988 0.265489 0.266006
          0.266538 0.267088 0.267655 0.268239 0.268842 0.269463 0.270093 0.270632 0.26994 0.255372 0.112807
        </DataArray>
        <DataArray type="Float32" Name="relativePerm_w" NumberOfComponents="1" format="ascii">
          0.0393017 0.0539438 0.0668009 0.0783639 0.0889038 0.0986003 0.107584 0.115954 0.123789 0.131152 0.138097 0.144666
          0.150898 0.156823 0.16247 0.167862 0.17302 0.177962 0.182706 0.187264 0.191651 0.195879 0.199956 0.203894
          0.2077 0.211382 0.214948 0.218404 0.221757 0.225011 0.228171 0.231244 0.234232 0.237139 0.239971 0.242729
          0.245418 0.248039 0.250598 0.253094 0.255533 0.257914 0.260242 0.262517 0.264743 0.26692 0.26905 0.271135
          0.273177 0.275177 0.277137 0.279057 0.280939 0.282784 0.284594 0.286369 0.288111 0.28982 0.291497 0.293143
          0.29476 0.296347 0.297906 0.299438 0.300942 0.302421 0.303874 0.305302 0.306705 0.308085 0.309442 0.310776
          0.312088 0.313379 0.314648 0.315896 0.317124 0.318333 0.319521 0.320691 0.321842 0.322975 0.32409 0.325187
          0.326267 0.32733 0.328376 0.329406 0.33042 0.331418 0.332401 0.333368 0.33432 0.335257 0.33618 0.337088
          0.337982 0.338863 0.339729 0.340582 0.341422 0.342249 0.343062 0.343863 0.344651 0.345427 0.34619 0.346942
          0.347681 0.348408 0.349124 0.349828 0.35052 0.351202 0.351872 0.35253 0.353178 0.353815 0.354441 0.355057
          0.355662 0.356256 0.35684 0.357414 0.357978 0.358531 0.359074 0.359607 0.360131 0.360644 0.361148 0.361642
          0.362126 0.362601 0.363066 0.363522 0.363968 0.364405 0.364833 0.365251 0.36566 0.36606 0.36645 0.366832
          0.367204 0.367567 0.367921 0.368266 0.368602 0.368929 0.369247 0.369557 0.369857 0.370148 0.37043 0.370704
          0.370968 0.371224 0.37147 0.371708 0.371937 0.372157 0.372368 0.37257 0.372763 0.372947 0.373122 0.373288
          0.373445 0.373593 0.373732 0.373862 0.373983 0.374094 0.374196 0.374289 0.374373 0.374448 0.374513 0.374568
          0.374614 0.374651 0.374678 0.374695 0.374703 0.3747 0.374688 0.374666 0.374634 0.374592 0.37454 0.374477
          0.374404 0.374321 0.374227 0.374123 0.374007 0.373881 0.373744 0.373596 0.373436 0.373265 0.373083 0.372889
          0.372684 0.372466 0.372236 0.371995 0.37174 0.371474 0.371194 0.370902 0.370596 0.370277 0.369945 0.369599
          0.369239 0.368864 0.368476 0.368072 0.367654 0.367221 0.366772 0.366307 0.365827 0.365329 0.364816 0.364285
          0.363737 0.363171 0.362587 0.361985 0.361363 0.360723 0.360062 0.359382 0.35868 0.357958 0.357213 0.356447
          0.355657 0.354844 0.354007 0.353145 0.352258 0.351346 0.350422 0.349634 0.350647 0.372479 0.646771
        </DataArray>
        <DataArray type="Float32" Name="relativePerm_n" NumberOfComponents="1" format="ascii">
          0.47727 0.422847 0.384435 0.355019 0.331412 0.311867 0.295313 0.281046 0.268581 0.257566 0.247739 0.238903
          0.230902 0.223614 0.21694 0.210799 0.205126 0.199863 0.194966 0.190394 0.186113 0.182095 0.178314 0.174748
          0.171379 0.168189 0.165163 0.162289 0.159553 0.156946 0.154459 0.152082 0.149809 0.147631 0.145544 0.14354
          0.141615 0.139764 0.137982 0.136266 0.134612 0.133016 0.131475 0.129987 0.128548 0.127156 0.125808 0.124503
          0.123239 0.122013 0.120824 0.11967 0.118549 0.11746 0.116402 0.115374 0.114373 0.1134 0.112453 0.11153
          0.110632 0.109756 0.108903 0.108071 0.10726 0.106468 0.105696 0.104942 0.104206 0.103487 0.102785 0.1021
          0.101429 0.100774 0.100134 0.0995077 0.0988952 0.0982962 0.0977101 0.0971367 0.0965755 0.0960262 0.0954884 0.0949619
          0.0944464 0.0939415 0.093447 0.0929626 0.092488 0.0920231 0.0915675 0.091121 0.0906834 0.0902546 0.0898342 0.0894222
          0.0890182 0.0886222 0.0882339 0.0878532 0.08748 0.087114 0.0867551 0.0864031 0.086058 0.0857196 0.0853877 0.0850623
          0.0847431 0.0844302 0.0841233 0.0838223 0.0835273 0.0832379 0.0829543 0.0826762 0.0824035 0.0821362 0.0818742 0.0816175
          0.0813658 0.0811192 0.0808775 0.0806408 0.0804088 0.0801817 0.0799592 0.0797413 0.0795281 0.0793193 0.079115 0.0789151
          0.0787195 0.0785282 0.0783412 0.0781584 0.0779797 0.0778051 0.0776347 0.0774682 0.0773057 0.0771472 0.0769927 0.076842
          0.0766951 0.0765521 0.0764129 0.0762774 0.0761457 0.0760177 0.0758934 0.0757728 0.0756559 0.0755425 0.0754328 0.0753267
          0.0752242 0.0751252 0.0750299 0.074938 0.0748497 0.0747649 0.0746837 0.0746059 0.0745317 0.074461 0.0743938 0.0743301
          0.0742699 0.0742133 0.0741601 0.0741104 0.0740643 0.0740217 0.0739827 0.0739471 0.0739152 0.0738868 0.073862 0.0738408
          0.0738233 0.0738093 0.0737991 0.0737925 0.0737896 0.0737905 0.0737951 0.0738034 0.0738156 0.0738317 0.0738516 0.0738755
          0.0739033 0.0739351 0.0739709 0.0740108 0.0740549 0.0741031 0.0741556 0.0742123 0.0742733 0.0743388 0.0744087 0.0744832
          0.0745622 0.0746459 0.0747343 0.0748275 0.0749256 0.0750286 0.0751367 0.07525 0.0753685 0.0754923 0.0756216 0.0757564
          0.0758969 0.0760432 0.0761953 0.0763535 0.0765178 0.0766885 0.0768655 0.0770492 0.0772396 0.077437 0.0776414 0.0778531
          0.0780723 0.0782991 0.0785339 0.0787767 0.0790278 0.0792875 0.079556 0.0798335 0.0801205 0.080417 0.0807236 0.0810404
          0.0813678 0.0817062 0.0820559 0.0824174 0.082791 0.0831766 0.083569 0.0839051 0.0834735 0.074641 0.0141868
        </DataArray>
        <DataArray type="Float32" Name="porosity" NumberOfComponents="1" format="ascii">
          0.558 0.558 0.558 0.558 0.558 0.558 0.558 0.558 0.558 0.558 0.558 0.558
          0.558 0.558 0.558 0.558 0.558 0.558 0.558 0.558 0.558 0.558 0.558 0.558
          0.558 0.558 0.558 0.558 0.558 0.558 0.558 0.558 0.558 0.558 0.558 0.558
          0.558 0.558 0.558 0.558 0.558 0.558 0.558 0.558 0.558 0.558 0.558 0.558
          0.558 0.558 0.558 0.558 0.558 0.558 0.558 0.558 0.558 0.558 0.558 0.558
          0.558 0.558 0.558 0.558 0.558 0.558 0.558 0.558 0.558 0.558 0.558 0.558
          0.558 0.558 0.558 0.558 0.558 0.558 0.558 0.558 0.558 0.558 0.558 0.558
          0.558 0.558 0.558 0.558 0.558 0.558 0.558 0.558 0.558 0.558 0.558 0.558
          0.558 0.558 0.558 0.558 0.558 0.558 0.558 0.558 0.558 0.558 0.558 0.558
          0.558 0.558 0.558 0.558 0.558 0.558 0.558 0.558 0.558 0.558 0.558 0.558
          0.558 0.558 0.558 0.558 0.558 0.558 0.558 0.558 0.558 0.558 0.558 0.558
          0.558 0.558 0.558 0.558 0.558 0.558 0.558 0.558 0.558 0.558 0.558 0.558
          0.558 0.558 0.558 0.558 0.558 0.558 0.558 0.558 0.558 0.558 0.558 0.558
          0.558 0.558 0.558 0.558 0.558 0.558 0.558 0.558 0.558 0.558 0.558 0.558
          0.558 0.558 0.558 0.558 0.558 0.558 0.558 0.558 0.558 0.558 0.558 0.558
          0.558 0.558 0.558 0.558 0.558 0.558 0.558 0.558 0.558 0.558 0.558 0.558
          0.558 0.558 0.558 0.558 0.558 0.558 0.558 0.558 0.558 0.558 0.558 0.558
          0.558 0.558 0.558 0.558 0.558 0.558 0.558 0.558 0.558 0.558 0.558 0.558
          0.558 0.558 0.558 0.558 0.558 0.558 0.558 0.558 0.558 0.558 0.558 0.558
          0.558 0.558 0.558 0.558 0.558 0.558 0.558 0.558 0.558 0.558 0.558 0.558
          0.558 0.558 0.558 0.558 0.558 0.558 0.558 0.558 0.558 0.558 0.558
        </DataArray>
        <DataArray type="Float32" Name="filterVelocity_w" NumberOfComponents="1" format="ascii">
          0.000136576 0.000353639 0.000608701 0.000892829 0.00118624 0.00148401 0.00178404 0.00208517 0.00238672 0.0026882 0.00298931 0.00328979
          0.0035895 0.00388829 0.0041861 0.00448284 0.00477848 0.00507299 0.00536635 0.00565856 0.00594961 0.0062395 0.00652824 0.00681585
          0.00710233 0.00738771 0.00767199 0.00795521 0.00823737 0.0085185 0.00879861 0.00907773 0.00935588 0.00963307 0.00990933 0.0101847
          0.0104591 0.0107327 0.0110054 0.0112773 0.0115484 0.0118186 0.0120881 0.0123568 0.0126248 0.012892 0.0131585 0.0134243
          0.0136894 0.0139538 0.0142176 0.0144807 0.0147432 0.0150051 0.0152664 0.0155271 0.0157872 0.0160467 0.0163057 0.0165641
          0.016822 0.0170794 0.0173363 0.0175927 0.0178486 0.018104 0.0183589 0.0186134 0.0188674 0.019121 0.0193741 0.0196269
          0.0198792 0.0201311 0.0203826 0.0206337 0.0208844 0.0211347 0.0213847 0.0216344 0.0218836 0.0221325 0.0223811 0.0226294
          0.0228773 0.0231249 0.0233722 0.0236192 0.0238659 0.0241123 0.0243584 0.0246042 0.0248497 0.025095 0.02534 0.0255848
          0.0258293 0.0260735 0.0263175 0.0265612 0.0268048 0.027048 0.0272911 0.0275339 0.0277766 0.028019 0.0282612 0.0285032
          0.028745 0.0289866 0.029228 0.0294692 0.0297103 0.0299511 0.0301918 0.0304324 0.0306727 0.0309129 0.0311529 0.0313928
          0.0316325 0.031872 0.0321115 0.0323507 0.0325899 0.0328288 0.0330677 0.0333064 0.033545 0.0337835 0.0340218 0.03426
          0.0344982 0.0347361 0.034974 0.0352118 0.0354494 0.035687 0.0359244 0.0361618 0.036399 0.0366362 0.0368732 0.0371102
          0.0373471 0.0375838 0.0378205 0.0380571 0.0382937 0.0385301 0.0387665 0.0390028 0.039239 0.0394751 0.0397112 0.0399472
          0.0401831 0.0404189 0.0406547 0.0408904 0.0411261 0.0413616 0.0415972 0.0418326 0.042068 0.0423033 0.0425386 0.0427738
          0.0430089 0.043244 0.043479 0.043714 0.0439489 0.0441837 0.0444185 0.0446532 0.0448878 0.0451224 0.045357 0.0455914
          0.0458258 0.0460602 0.0462944 0.0465287 0.0467628 0.0469969 0.0472309 0.0474648 0.0476987 0.0479325 0.0481662 0.0483998
          0.0486334 0.0488668 0.0491002 0.0493335 0.0495667 0.0497998 0.0500328 0.0502657 0.0504985 0.0507312 0.0509638 0.0511962
          0.0514285 0.0516607 0.0518928 0.0521247 0.0523565 0.0525881 0.0528195 0.0530508 0.0532819 0.0535129 0.0537436 0.0539741
          0.0542044 0.0544345 0.0546644 0.054894 0.0551234 0.0553525 0.0555814 0.0558099 0.0560381 0.0562661 0.0564936 0.0567209
          0.0569477 0.0571742 0.0574003 0.0576259 0.0578511 0.0580758 0.0583 0.0585237 0.0587468 0.0589694 0.0591914 0.0594127
          0.0596333 0.0598533 0.0600725 0.0602909 0.0605085 0.0607252 0.0609409 0.0611553 0.0613656 0.0615518 0.0616344
        </DataArray>
        <DataArray type="Float32" Name="filterVelocity_n" NumberOfComponents="1" format="ascii">
          0.32509 0.325259 0.325588 0.325901 0.326204 0.3265 0.326793 0.327083 0.327372 0.327661 0.327952 0.328244
          0.328539 0.328836 0.329137 0.329441 0.329749 0.330061 0.330378 0.330698 0.331023 0.331353 0.331688 0.332027
          0.332372 0.332721 0.333076 0.333436 0.333801 0.334171 0.334547 0.334928 0.335314 0.335706 0.336104 0.336507
          0.336916 0.33733 0.33775 0.338176 0.338608 0.339045 0.339488 0.339938 0.340393 0.340854 0.341321 0.341794
          0.342273 0.342758 0.343249 0.343747 0.344251 0.344761 0.345277 0.3458 0.346329 0.346865 0.347407 0.347955
          0.34851 0.349072 0.349641 0.350216 0.350798 0.351387 0.351983 0.352585 0.353195 0.353812 0.354436 0.355067
          0.355705 0.356351 0.357004 0.357664 0.358332 0.359007 0.35969 0.360381 0.36108 0.361786 0.362501 0.363223
          0.363954 0.364692 0.365439 0.366194 0.366958 0.36773 0.36851 0.3693 0.370098 0.370905 0.371721 0.372546
          0.37338 0.374223 0.375076 0.375938 0.37681 0.377691 0.378582 0.379483 0.380394 0.381316 0.382247 0.383189
          0.384141 0.385104 0.386078 0.387063 0.388058 0.389065 0.390084 0.391113 0.392154 0.393208 0.394272 0.39535
          0.396439 0.397541 0.398655 0.399782 0.400922 0.402075 0.403241 0.404421 0.405614 0.406822 0.408043 0.409279
          0.410529 0.411794 0.413073 0.414368 0.415678 0.417004 0.418346 0.419703 0.421077 0.422468 0.423875 0.4253
          0.426742 0.428201 0.429679 0.431175 0.432689 0.434222 0.435774 0.437346 0.438938 0.44055 0.442182 0.443835
          0.445509 0.447205 0.448923 0.450664 0.452427 0.454213 0.456023 0.457857 0.459715 0.461599 0.463507 0.465442
          0.467403 0.469391 0.471407 0.47345 0.475522 0.477624 0.479754 0.481916 0.484108 0.486331 0.488587 0.490876
          0.493198 0.495554 0.497946 0.500373 0.502837 0.505338 0.507878 0.510456 0.513075 0.515734 0.518435 0.521178
          0.523966 0.526798 0.529676 0.532601 0.535575 0.538597 0.54167 0.544794 0.547972 0.551204 0.554492 0.557837
          0.561241 0.564705 0.568231 0.57182 0.575475 0.579197 0.582988 0.58685 0.590784 0.594794 0.598881 0.603047
          0.607295 0.611627 0.616046 0.620555 0.625156 0.629852 0.634646 0.639541 0.644541 0.649649 0.654868 0.660203
          0.665657 0.671235 0.67694 0.682778 0.688752 0.694869 0.701133 0.70755 0.714125 0.720865 0.727776 0.734865
          0.742139 0.749606 0.757273 0.765149 0.773243 0.781564 0.790123 0.79893 0.808005 0.81743 0.822217
        </DataArray>
        <DataArray type="Float32" Name="temperature" NumberOfComponents="1" format="ascii">
          299.75 299.75 299.75 299.75 299.75 299.75 299.75 299.75 299.75 299.75 299.75 299.75
          299.75 299.75 299.75 299.75 299.75 299.75 299.75 299.75 299.75 299.75 299.75 299.75
          299.75 299.75 299.75 299.75 299.75 299.75 299.75 299.75 299.75 299.75 299.75 299.75
          299.75 299.75 299.75 299.75 299.75 299.75 299.75 299.75 299.75 299.75 299.75 299.75
          299.75 299.75 299.75 299.75 299.75 299.75 299.75 299.75 299.75 299.75 299.75 299.75
          299.75 299.75 299.75 299.75 299.75 299.75 299.75 299.75 299.75 299.75 299.75 299.75
          299.75 299.75 299.75 299.75 299.75 299.75 299.75 299.75 299.75 299.75 299.75 299.75
          299.75 299.75 299.75 299.75 299.75 299.75 299.75 299.75 299.75 299.75 299.75 299.75
          299.75 299.75 299.75 299.75 299.75 299.75 299.75 299.75 299.75 299.75 299.75 299.75
          299.75 299.75 299.75 299.75 299.75 299.75 299.75 299.75 299.75 299.75 299.75 299.75
          299.75 299.75 299.75 299.75 299.75 299.75 299.75 299.75 299.75 299.75 299.75 299.75
          299.75 299.75 299.75 299.75 299.75 299.75 299.75 299.75 299.75 299.75 299.75 299.75
          299.75 299.75 299.75 299.75 299.75 299.75 299.75 299.75 299.75 299.75 299.75 299.75
          299.75 299.75 299.75 299.75 299.75 299.75 299.75 299.75 299.75 299.75 299.75 299.75
          299.75 299.75 299.75 299.75 299.75 299.75 299.75 299.75 299.75 299.75 299.75 299.75
          299.75 299.75 299.75 299.75 299.75 299.75 299.75 299.75 299.75 299.75 299.75 299.75
          299.75 299.75 299.75 299.75 299.75 299.75 299.75 299.75 299.75 299.75 299.75 299.75
          299.75 299.75 299.75 299.75 299.75 299.75 299.75 299.75 299.75 299.75 299.75 299.75
          299.75 299.75 299.75 299.75 299.75 299.75 299.75 299.75 299.75 299.75 299.75 299.75
          299.75 299.75 299.75 299.75 299.75 299.75 299.75 299.75 299.75 299.75 299.75 299.75
          299.75 299.75 299.75 299.75 299.75 299.75 299.75 299.75 299.75 299.75 299.75
        </DataArray>
      </PointData>
      <Points>
        <DataArray type="Float32" Name="Coordinates" NumberOfComponents="3" format="ascii">
          0 0 0 0.4 0 0 0.8 0 0 1.2 0 0
          1.6 0 0 2 0 0 2.4 0 0 2.8 0 0
          3.2 0 0 3.6 0 0 4 0 0 4.4 0 0
          4.8 0 0 5.2 0 0 5.6 0 0 6 0 0
          6.4 0 0 6.8 0 0 7.2 0 0 7.6 0 0
          8 0 0 8.4 0 0 8.8 0 0 9.2 0 0
          9.6 0 0 10 0 0 10.4 0 0 10.8 0 0
          11.2 0 0 11.6 0 0 12 0 0 12.4 0 0
          12.8 0 0 13.2 0 0 13.6 0 0 14 0 0
          14.4 0 0 14.8 0 0 15.2 0 0 15.6 0 0
          16 0 0 16.4 0 0 16.8 0 0 17.2 0 0
          17.6 0 0 18 0 0 18.4 0 0 18.8 0 0
          19.2 0 0 19.6 0 0 20 0 0 20.4 0 0
          20.8 0 0 21.2 0 0 21.6 0 0 22 0 0
          22.4 0 0 22.8 0 0 23.2 0 0 23.6 0 0
          24 0 0 24.4 0 0 24.8 0 0 25.2 0 0
          25.6 0 0 26 0 0 26.4 0 0 26.8 0 0
          27.2 0 0 27.6 0 0 28 0 0 28.4 0 0
          28.8 0 0 29.2 0 0 29.6 0 0 30 0 0
          30.4 0 0 30.8 0 0 31.2 0 0 31.6 0 0
          32 0 0 32.4 0 0 32.8 0 0 33.2 0 0
          33.6 0 0 34 0 0 34.4 0 0 34.8 0 0
          35.2 0 0 35.6 0 0 36 0 0 36.4 0 0
          36.8 0 0 37.2 0 0 37.6 0 0 38 0 0
          38.4 0 0 38.8 0 0 39.2 0 0 39.6 0 0
          40 0 0 40.4 0 0 40.8 0 0 41.2 0 0
          41.6 0 0 42 0 0 42.4 0 0 42.8 0 0
          43.2 0 0 43.6 0 0 44 0 0 44.4 0 0
          44.8 0 0 45.2 0 0 45.6 0 0 46 0 0
          46.4 0 0 46.8 0 0 47.2 0 0 47.6 0 0
          48 0 0 48.4 0 0 48.8 0 0 49.2 0 0
          49.6 0 0 50 0 0 50.4 0 0 50.8 0 0
          51.2 0 0 51.6 0 0 52 0 0 52.4 0 0
          52.8 0 0 53.2 0 0 53.6 0 0 54 0 0
          54.4 0 0 54.8 0 0 55.2 0 0 55.6 0 0
          56 0 0 56.4 0 0 56.8 0 0 57.2 0 0
          57.6 0 0 58 0 0 58.4 0 0 58.8 0 0
          59.2 0 0 59.6 0 0 60 0 0 60.4 0 0
          60.8 0 0 61.2 0 0 61.6 0 0 62 0 0
          62.4 0 0 62.8 0 0 63.2 0 0 63.6 0 0
          64 0 0 64.4 0 0 64.8 0 0 65.2 0 0
          65.6 0 0 66 0 0 66.4 0 0 66.8 0 0
          67.2 0 0 67.6 0 0 68 0 0 68.4 0 0