<?xml version="1.0"?>
<VTKFile type="PolyData" version="0.1" byte_order="LittleEndian">
  <PolyData>
    <Piece NumberOfLines="250" NumberOfPoints="251">
      <PointData Scalars="pressure_w">
        <DataArray type="Float32" Name="pressure_w" NumberOfComponents="1" format="ascii">
          262369 262345 262290 262215 262125 262021 261907 261782 261648 261505 261354 261196
          261030 260858 260678 260492 260300 260101 259896 259686 259470 259248 259020 258787
          258549 258306 258057 257803 257544 257281 257012 256739 256460 256177 255890 255597
          255301 254999 254693 254383 254068 253749 253425 253097 252765 252429 252088 251743
          251394 251041 250683 250322 249956 249586 249213 248835 248453 248068 247678 247284
          246887 246485 246080 245670 245257 244840 244419 243994 243566 243133 242697 242257
          241813 241366 240914 240459 240000 239538 239071 238601 238128 237650 237169 236684
          236196 235703 235207 234708 234204 233698 233187 232673 232155 231633 231108 230579
          230047 229510 228971 228427 227880 227330 226775 226217 225656 225090 224522 223949
          223373 222793 222210 221623 221032 220438 219840 219239 218634 218025 217412 216796
          216177 215553 214926 214295 213661 213023 212381 211736 211087 210434 209778 209118
          208454 207786 207115 206440 205762 205079 204393 203703 203010 202313 201611 200907
          200198 199486 198769 198049 197325 196598 195866 195131 194392 193649 192902 192151
          191396 190638 189875 189109 188339 187564 186786 186004 185218 184427 183633 182835
          182033 181226 180416 179601 178783 177960 177133 176302 175467 174627 173784 172936
          172084 171228 170367 169502 168633 167759 166881 165999 165112 164221 163325 162425
          161520 160611 159698 158779 157856 156929 155997 155060 154118 153172 152221 151265
          150304 149338 148367 147392 146411 145426 144435 143439 142438 141432 140421 139405
          138383 137355 136323 135285 134241 133192 132138 131077 130011 128940 127862 126779
          125689 124594 123493 122385 121271 120151 119025 117892 116753 115607 114455 113296
          112130 110957 109777 108590 107396 106194 104986 103769 102546 101322 100166
        </DataArray>
        <DataArray type="Float32" Name="pressure_n" NumberOfComponents="1" format="ascii">
          264877 264790 264691 264583 264466 264340 264206 264064 263915 263759 263597 263427
          263252 263070 262881 262687 262487 262282 262070 261854 261631 261404 261171 260933
          260690 260442 260189 259931 259668 259400 259128 258851 258569 258282 257991 257696
          257396 257092 256783 256469 256152 255830 255504 255173 254839 254500 254157 253810
          253458 253103 252743 252380 252012 251641 251265 250885 250502 250114 249723 249327
          248928 248525 248118 247707 247292 246874 246451 246025 245595 245161 244724 244282
          243837 243388 242936 242479 242019 241555 241088 240617 240142 239663 239181 238695
          238205 237712 237215 236714 236210 235702 235190 234675 234156 233634 233108 232578
          232045 231508 230967 230423 229875 229323 228768 228210 227647 227081 226512 225939
          225362 224781 224197 223610 223018 222423 221825 221223 220617 220008 219394 218778
          218158 217534 216906 216275 215640 215001 214359 213713 213064 212410 211754 211093
          210429 209761 209089 208414 207735 207052 206365 205675 204981 204284 203582 202877
          202168 201455 200739 200018 199294 198566 197834 197099 196359 195616 194869 194118
          193363 192604 191841 191075 190304 189530 188751 187969 187182 186392 185598 184799
          183997 183190 182380 181565 180746 179923 179096 178265 177430 176590 175747 174899
          174047 173190 172330 171465 170596 169722 168844 167962 167075 166184 165288 164388
          163484 162575 161661 160743 159820 158892 157960 157024 156082 155136 154185 153229
          152268 151303 150333 149357 148377 147392 146401 145406 144405 143399 142388 141372
          140351 139324 138292 137254 136211 135162 134108 133048 131983 130911 129834 128751
          127663 126568 125467 124360 123247 122127 121002 119870 118731 117586 116434 115276
          114111 112939 111760 110574 109380 108180 106972 105756 104532 103287 101878
        </DataArray>
        <DataArray type="Float32" Name="density_w" NumberOfComponents="1" format="ascii">
          1000 1000 1000 1000 1000 1000 1000 1000 1000 1000 1000 1000
          1000 1000 1000 1000 1000 1000 1000 1000 1000 1000 1000 1000
          1000 1000 1000 1000 1000 1000 1000 1000 1000 1000 1000 1000
          1000 1000 1000 1000 1000 1000 1000 1000 1000 1000 1000 1000
          1000 1000 1000 1000 1000 1000 1000 1000 1000 1000 1000 1000
          1000 1000 1000 1000 1000 1000 1000 1000 1000 1000 1000 1000
          1000 1000 1000 1000 1000 1000 1000 1000 1000 1000 1000 1000
          1000 1000 1000 1000 1000 1000 1000 1000 1000 1000 1000 1000
          1000 1000 1000 1000 1000 1000 1000 1000 1000 1000 1000 1000
          1000 1000 1000 1000 1000 1000 1000 1000 1000 1000 1000 1000
          1000 1000 1000 1000 1000 1000 1000 1000 1000 1000 1000 1000
          1000 1000 1000 1000 1000 1000 1000 1000 1000 1000 1000 1000
          1000 1000 1000 1000 1000 1000 1000 1000 1000 1000 1000 1000
          1000 1000 1000 1000 1000 1000 1000 1000 1000 1000 1000 1000
          1000 1000 1000 1000 1000 1000 1000 1000 1000 1000 1000 1000
          1000 1000 1000 1000 1000 1000 1000 1000 1000 1000 1000 1000
          1000 1000 1000 1000 1000 1000 1000 1000 1000 1000 1000 1000
          1000 1000 1000 1000 1000 1000 1000 1000 1000 1000 1000 1000
          1000 1000 1000 1000 1000 1000 1000 1000 1000 1000 1000 1000
          1000 1000 1000 1000 1000 1000 1000 1000 1000 1000 1000 1000
          1000 1000 1000 1000 1000 1000 1000 1000 1000 1000 1000
        </DataArray>
        <DataArray type="Float32" Name="density_n" NumberOfComponents="1" format="ascii">
          3.07786 3.07685 3.0757 3.07444 3.07308 3.07162 3.07006 3.06842 3.06669 3.06487 3.06298 3.06101
          3.05897 3.05686 3.05467 3.05242 3.05009 3.0477 3.04525 3.04273 3.04015 3.0375 3.0348 3.03203
          3.02921 3.02632 3.02338 3.02038 3.01733 3.01422 3.01105 3.00783 3.00456 3.00123 2.99785 2.99442
          2.99093 2.98739 2.9838 2.98017 2.97648 2.97273 2.96894 2.96511 2.96122 2.95728 2.95329 2.94926
          2.94518 2.94105 2.93687 2.93264 2.92837 2.92405 2.91969 2.91528 2.91082 2.90632 2.90177 2.89718
          2.89254 2.88785 2.88312 2.87835 2.87353 2.86866 2.86375 2.8588 2.8538 2.84876 2.84368 2.83855
          2.83338 2.82816 2.8229 2.8176 2.81225 2.80686 2.80143 2.79595 2.79044 2.78488 2.77927 2.77362
          2.76793 2.7622 2.75643 2.75061 2.74475 2.73885 2.7329 2.72692 2.72089 2.71482 2.7087 2.70255
          2.69635 2.69011 2.68383 2.6775 2.67114 2.66473 2.65828 2.65179 2.64525 2.63868 2.63206 2.6254
          2.61869 2.61195 2.60516 2.59833 2.59146 2.58455 2.5776 2.5706 2.56356 2.55648 2.54936 2.54219
          2.53498 2.52773 2.52044 2.5131 2.50573 2.49831 2.49084 2.48334 2.47579 2.4682 2.46057 2.45289
          2.44517 2.43741 2.42961 2.42176 2.41387 2.40594 2.39796 2.38994 2.38187 2.37377 2.36562 2.35742
          2.34918 2.3409 2.33257 2.3242 2.31579 2.30733 2.29883 2.29028 2.28169 2.27305 2.26437 2.25564
          2.24687 2.23805 2.22919 2.22028 2.21133 2.20233 2.19328 2.18419 2.17505 2.16587 2.15664 2.14736
          2.13803 2.12866 2.11924 2.10978 2.10026 2.0907 2.08109 2.07144 2.06173 2.05197 2.04217 2.03232
          2.02242 2.01247 2.00247 1.99242 1.98231 1.97216 1.96196 1.95171 1.94141 1.93105 1.92064 1.91018
          1.89967 1.88911 1.87849 1.86782 1.8571 1.84632 1.83549 1.82461 1.81367 1.80267 1.79162 1.78052
          1.76935 1.75813 1.74686 1.73553 1.72413 1.71268 1.70118 1.68961 1.67798 1.6663 1.65455 1.64274
          1.63087 1.61894 1.60694 1.59489 1.58277 1.57058 1.55833 1.54601 1.53363 1.52119 1.50867 1.49609
          1.48343 1.47071 1.45792 1.44506 1.43212 1.41912 1.40604 1.39288 1.37965 1.36635 1.35296 1.3395
          1.32596 1.31234 1.29864 1.28486 1.27099 1.25704 1.243 1.22888 1.21465 1.20019 1.18382
        </DataArray>
        <DataArray type="Float32" Name="saturation_w" NumberOfComponents="1" format="ascii">
          0.346497 0.386743 0.416418 0.43999 0.459516 0.476145 0.49059 0.50333 0.514701 0.524949 0.53426 0.542777
          0.550614 0.557862 0.564596 0.570877 0.576756 0.582277 0.587477 0.592386 0.597033 0.60144 0.60563 0.609619
          0.613424 0.617059 0.620537 0.62387 0.627068 0.630139 0.633092 0.635935 0.638675 0.641317 0.643868 0.646333
          0.648717 0.651024 0.653258 0.655423 0.657522 0.659559 0.661537 0.663459 0.665326 0.667142 0.668909 0.67063
          0.672305 0.673937 0.675528 0.677079 0.678591 0.680068 0.681509 0.682916 0.68429 0.685633 0.686945 0.688229
          0.689483 0.69071 0.691911 0.693086 0.694237 0.695363 0.696465 0.697546 0.698604 0.699641 0.700657 0.701653
          0.70263 0.703587 0.704526 0.705447 0.706351 0.707237 0.708107 0.70896 0.709798 0.71062 0.711427 0.712219
          0.712997 0.713761 0.714511 0.715248 0.715971 0.716682 0.71738 0.718066 0.718739 0.719401 0.720051 0.72069
          0.721317 0.721934 0.722539 0.723135 0.72372 0.724294 0.724859 0.725414 0.725959 0.726495 0.727021 0.727538
          0.728046 0.728545 0.729035 0.729517 0.729989 0.730454 0.73091 0.731358 0.731798 0.73223 0.732654 0.733071
          0.733479 0.733881 0.734274 0.73466 0.735039 0.735411 0.735775 0.736132 0.736482 0.736826 0.737162 0.737492
          0.737814 0.738131 0.73844 0.738743 0.739039 0.739329 0.739612 0.739889 0.740159 0.740424 0.740682 0.740933
          0.741179 0.741418 0.741651 0.741878 0.742099 0.742314 0.742523 0.742726 0.742922 0.743113 0.743298 0.743477
          0.74365 0.743817 0.743978 0.744133 0.744283 0.744426 0.744564 0.744695 0.744821 0.744941 0.745055 0.745163
          0.745265 0.745361 0.745452 0.745536 0.745614 0.745687 0.745753 0.745813 0.745867 0.745916 0.745958 0.745994
          0.746023 0.746047 0.746064 0.746075 0.74608 0.746078 0.74607 0.746056 0.746035 0.746007 0.745973 0.745932
          0.745884 0.74583 0.745769 0.7457 0.745625 0.745543 0.745453 0.745357 0.745252 0.745141 0.745022 0.744895
          0.744761 0.744619 0.744468 0.74431 0.744144 0.743969 0.743786 0.743594 0.743394 0.743185 0.742967 0.742739
          0.742502 0.742256 0.742 0.741735 0.741459 0.741173 0.740876 0.740569 0.740251 0.739922 0.739581 0.739229
          0.738864 0.738488 0.738099 0.737697 0.737283 0.736854 0.736412 0.735956 0.735485 0.734999 0.734498 0.733981
          0.733448 0.732898 0.732331 0.731745 0.731142 0.730521 0.72989 0.72935 0.730042 0.744608 0.887177
        </DataArray>
        <DataArray type="Float32" Name="saturation_n" NumberOfComponents="1" format="ascii">
          0.653503 0.613257 0.583582 0.56001 0.540484 0.523855 0.50941 0.49667 0.485299 0.475051 0.46574 0.457223
          0.449386 0.442138 0.435404 0.429123 0.423244 0.417723 0.412523 0.407614 0.402967 0.39856 0.39437 0.390381
          0.386576 0.382941 0.379463 0.37613 0.372932 0.369861 0.366908 0.364065 0.361325 0.358683 0.356132 0.353667
          0.351283 0.348976 0.346742 0.344577 0.342478 0.340441 0.338463 0.336541 0.334674 0.332858 0.33109 0.32937
          0.327695 0.326063 0.324472 0.322921 0.321409 0.319932 0.318491 0.317084 0.31571 0.314367 0.313055 0.311771
          0.310517 0.30929 0.308089 0.306914 0.305763 0.304637 0.303535 0.302454 0.301396 0.300359 0.299343 0.298347
          0.29737 0.296413 0.295474 0.294553 0.293649 0.292763 0.291893 0.29104 0.290202 0.28938 0.288573 0.287781
          0.287003 0.286239 0.285489 0.284752 0.284029 0.283318 0.28262 0.281934 0.281261 0.280599 0.279949 0.27931
          0.278683 0.278066 0.27746 0.276865 0.27628 0.275706 0.275141 0.274586 0.274041 0.273505 0.272979 0.272462
          0.271954 0.271455 0.270965 0.270483 0.270011 0.269546 0.26909 0.268642 0.268202 0.26777 0.267346 0.266929
          0.266521 0.266119 0.265726 0.26534 0.264961 0.264589 0.264225 0.263868 0.263518 0.263174 0.262838 0.262508
          0.262186 0.261869 0.26156 0.261257 0.260961 0.260671 0.260388 0.260111 0.259841 0.259576 0.259318 0.259067
          0.258821 0.258582 0.258349 0.258122 0.257901 0.257686 0.257477 0.257274 0.257078 0.256887 0.256702 0.256523
          0.25635 0.256183 0.256022 0.255867 0.255717 0.255574 0.255436 0.255305 0.255179 0.255059 0.254945 0.254837
          0.254735 0.254639 0.254548 0.254464 0.254386 0.254313 0.254247 0.254187 0.254133 0.254084 0.254042 0.254006
          0.253977 0.253953 0.253936 0.253925 0.25392 0.253922 0.25393 0.253944 0.253965 0.253993 0.254027 0.254068
          0.254116 0.25417 0.254231 0.2543 0.254375 0.254457 0.254547 0.254643 0.254748 0.254859 0.254978 0.255105
          0.255239 0.255381 0.255532 0.25569 0.255856 0.256031 0.256214 0.256406 0.256606 0.256815 0.257033 0.257261
          0.257498 0.257744 0.258 0.258265 0.258541 0.258827 0.259124 0.259431 0.259749 0.260078 0.260419 0.260771
          0.261136 0.261512 0.261901 0.262303 0.262717 0.263146 0.263588 0.264044 0.264515 0.265001 0.265502 0.266019
          0.266552 0.267102 0.267669 0.268255 0.268858 0.269479 0.27011 0.27065 0.269958 0.255392 0.112823
        </DataArray>
        <DataArray type="Float32" Name="relativePerm_w" NumberOfComponents="1" format="ascii">
          0.0393246 0.0539716 0.0668315 0.0783965 0.0889378 0.0986354 0.10762 0.11599 0.123826 0.13119 0.138135 0.144704
          0.150936 0.156861 0.162508 0.1679 0.173058 0.178001 0.182744 0.187303 0.19169 0.195917 0.199994 0.203931
          0.207737 0.21142 0.214986 0.218442 0.221794 0.225048 0.228208 0.23128 0.234268 0.237176 0.240007 0.242765
          0.245453 0.248075 0.250633 0.25313 0.255568 0.257949 0.260277 0.262552 0.264777 0.266954 0.269084 0.271169
          0.273211 0.275211 0.27717 0.27909 0.280972 0.282817 0.284627 0.286402 0.288143 0.289852 0.291529 0.293175
          0.294792 0.296379 0.297938 0.299469 0.300974 0.302452 0.303905 0.305332 0.306736 0.308116 0.309472 0.310806
          0.312118 0.313408 0.314677 0.315925 0.317153 0.318362 0.31955 0.32072 0.321871 0.323004 0.324118 0.325215
          0.326295 0.327358 0.328404 0.329434 0.330447 0.331445 0.332427 0.333394 0.334346 0.335283 0.336206 0.337114
          0.338008 0.338888 0.339755 0.340608 0.341447 0.342274 0.343087 0.343888 0.344676 0.345451 0.346215 0.346966
          0.347705 0.348432 0.349147 0.349851 0.350544 0.351225 0.351894 0.352553 0.353201 0.353838 0.354464 0.355079
          0.355684 0.356278 0.356862 0.357435 0.357999 0.358552 0.359095 0.359628 0.360151 0.360664 0.361168 0.361662
          0.362146 0.36262 0.363085 0.363541 0.363987 0.364424 0.364851 0.365269 0.365678 0.366077 0.366467 0.366849
          0.367221 0.367584 0.367938 0.368282 0.368618 0.368945 0.369263 0.369572 0.369872 0.370163 0.370445 0.370718
          0.370982 0.371237 0.371484 0.371721 0.37195 0.37217 0.37238 0.372582 0.372775 0.372959 0.373133 0.373299
          0.373456 0.373604 0.373742 0.373872 0.373992 0.374103 0.374205 0.374298 0.374382 0.374456 0.37452 0.374576
          0.374621 0.374658 0.374684 0.374701 0.374709 0.374706 0.374694 0.374671 0.374639 0.374596 0.374544 0.374481
          0.374408 0.374324 0.37423 0.374125 0.374009 0.373882 0.373745 0.373596 0.373436 0.373265 0.373083 0.372888
          0.372682 0.372464 0.372234 0.371992 0.371737 0.37147 0.37119 0.370897 0.370591 0.370272 0.369939 0.369592
          0.369232 0.368857 0.368468 0.368064 0.367646 0.367212 0.366762 0.366297 0.365816 0.365318 0.364804 0.364273
          0.363724 0.363158 0.362573 0.36197 0.361348 0.360707 0.360046 0.359365 0.358663 0.357939 0.357194 0.356427
          0.355637 0.354823 0.353985 0.353123 0.352235 0.351322 0.350397 0.349608 0.35062 0.372448 0.646732
        </DataArray>
        <DataArray type="Float32" Name="relativePerm_n" NumberOfComponents="1" format="ascii">
          0.477172 0.422756 0.384351 0.354942 0.33134 0.3118 0.295249 0.280986 0.268524 0.257511 0.247687 0.238853
          0.230854 0.223568 0.216896 0.210756 0.205084 0.199823 0.194927 0.190356 0.186076 0.182059 0.178279 0.174714
          0.171346 0.168157 0.165132 0.162258 0.159523 0.156917 0.15443 0.152054 0.149781 0.147604 0.145517 0.143514
          0.141589 0.139739 0.137958 0.136242 0.134588 0.132993 0.131452 0.129964 0.128525 0.127134 0.125787 0.124482
          0.123218 0.121992 0.120803 0.11965 0.118529 0.117441 0.116383 0.115355 0.114355 0.113382 0.112435 0.111512
          0.110614 0.109739 0.108886 0.108054 0.107243 0.106452 0.10568 0.104926 0.10419 0.103472 0.10277 0.102084
          0.101414 0.100759 0.100119 0.099493 0.0988808 0.0982819 0.097696 0.0971227 0.0965616 0.0960125 0.0954749 0.0949485
          0.0944331 0.0939284 0.093434 0.0929498 0.0924753 0.0920105 0.091555 0.0911087 0.0906713 0.0902426 0.0898223 0.0894104
          0.0890066 0.0886107 0.0882225 0.087842 0.0874688 0.0871029 0.0867441 0.0863923 0.0860473 0.085709 0.0853772 0.0850519
          0.0847329 0.08442 0.0841132 0.0838124 0.0835174 0.0832282 0.0829447 0.0826667 0.0823941 0.0821269 0.081865 0.0816084
          0.0813568 0.0811103 0.0808687 0.0806321 0.0804002 0.0801732 0.0799508 0.079733 0.0795199 0.0793112 0.079107 0.0789072
          0.0787117 0.0785205 0.0783336 0.0781509 0.0779723 0.0777978 0.0776274 0.0774611 0.0772987 0.0771403 0.0769858 0.0768352
          0.0766885 0.0765456 0.0764064 0.0762711 0.0761395 0.0760116 0.0758874 0.0757669 0.07565 0.0755368 0.0754272 0.0753212
          0.0752188 0.0751199 0.0750246 0.0749329 0.0748447 0.07476 0.0746789 0.0746012 0.0745271 0.0744565 0.0743894 0.0743259
          0.0742658 0.0742092 0.0741562 0.0741066 0.0740606 0.0740181 0.0739792 0.0739438 0.0739119 0.0738837 0.073859 0.073838
          0.0738205 0.0738067 0.0737966 0.0737901 0.0737873 0.0737883 0.073793 0.0738016 0.0738139 0.0738301 0.0738501 0.0738741
          0.0739021 0.073934 0.07397 0.07401 0.0740542 0.0741026 0.0741552 0.0742121 0.0742733 0.0743389 0.074409 0.0744836
          0.0745627 0.0746466 0.0747351 0.0748285 0.0749268 0.07503 0.0751383 0.0752517 0.0753704 0.0754944 0.0756238 0.0757588
          0.0758995 0.0760459 0.0761983 0.0763567 0.0765212 0.076692 0.0768693 0.0770532 0.0772438 0.0774414 0.0776461 0.077858
          0.0780774 0.0783045 0.0785395 0.0787825 0.0790339 0.0792939 0.0795626 0.0798405 0.0801277 0.0804245 0.0807314 0.0810485
          0.0813762 0.0817149 0.082065 0.0824268 0.0828008 0.0831868 0.0835797 0.0839161 0.0834849 0.0746529 0.014191
        </DataArray>
        <DataArray type="Float32" Name="porosity" NumberOfComponents="1" format="ascii">
          0.558 0.558 0.558 0.558 0.558 0.558 0.558 0.558 0.558 0.558 0.558 0.558
          0.558 0.558 0.558 0.558 0.558 0.558 0.558 0.558 0.558 0.558 0.558 0.558
          0.558 0.558 0.558 0.558 0.558 0.558 0.558 0.558 0.558 0.558 0.558 0.558
          0.558 0.558 0.558 0.558 0.558 0.558 0.558 0.558 0.558 0.558 0.558 0.558
          0.558 0.558 0.558 0.558 0.558 0.558 0.558 0.558 0.558 0.558 0.558 0.558
          0.558 0.558 0.558 0.558 0.558 0.558 0.558 0.558 0.558 0.558 0.558 0.558
          0.558 0.558 0.558 0.558 0.558 0.558 0.558 0.558 0.558 0.558 0.558 0.558
          0.558 0.558 0.558 0.558 0.558 0.558 0.558 0.558 0.558 0.558 0.558 0.558
          0.558 0.558 0.558 0.558 0.558 0.558 0.558 0.558 0.558 0.558 0.558 0.558
          0.558 0.558 0.558 0.558 0.558 0.558 0.558 0.558 0.558 0.558 0.558 0.558
          0.558 0.558 0.558 0.558 0.558 0.558 0.558 0.558 0.558 0.558 0.558 0.558
          0.558 0.558 0.558 0.558 0.558 0.558 0.558 0.558 0.558 0.558 0.558 0.558
          0.558 0.558 0.558 0.558 0.558 0.558 0.558 0.558 0.558 0.558 0.558 0.558
          0.558 0.558 0.558 0.558 0.558 0.558 0.558 0.558 0.558 0.558 0.558 0.558
          0.558 0.558 0.558 0.558 0.558 0.558 0.558 0.558 0.558 0.558 0.558 0.558
          0.558 0.558 0.558 0.558 0.558 0.558 0.558 0.558 0.558 0.558 0.558 0.558
          0.558 0.558 0.558 0.558 0.558 0.558 0.558 0.558 0.558 0.558 0.558 0.558
          0.558 0.558 0.558 0.558 0.558 0.558 0.558 0.558 0.558 0.558 0.558 0.558
          0.558 0.558 0.558 0.558 0.558 0.558 0.558 0.558 0.558 0.558 0.558 0.558
          0.558 0.558 0.558 0.558 0.558 0.558 0.558 0.558 0.558 0.558 0.558 0.558
          0.558 0.558 0.558 0.558 0.558 0.558 0.558 0.558 0.558 0.558 0.558
        </DataArray>
        <DataArray type="Float32" Name="filterVelocity_w" NumberOfComponents="1" format="ascii">
          0.000136747 0.00035393 0.000609141 0.000893405 0.00118695 0.00148484 0.00178498 0.00208623 0.00238789 0.00268949 0.00299071 0.00329131
          0.00359112 0.00389002 0.00418793 0.00448478 0.00478053 0.00507515 0.00536861 0.00566092 0.00595207 0.00624206 0.00653091 0.00681861
          0.0071052 0.00739067 0.00767506 0.00795837 0.00824063 0.00852186 0.00880207 0.00908129 0.00935953 0.00963682 0.00991317 0.0101886
          0.0104632 0.0107368 0.0110096 0.0112816 0.0115528 0.0118231 0.0120927 0.0123615 0.0126295 0.0128968 0.0131634 0.0134293
          0.0136945 0.013959 0.0142229 0.0144861 0.0147487 0.0150107 0.0152721 0.0155328 0.015793 0.0160526 0.0163117 0.0165702
          0.0168282 0.0170857 0.0173427 0.0175991 0.0178551 0.0181106 0.0183656 0.0186201 0.0188743 0.0191279 0.0193811 0.0196339
          0.0198863 0.0201383 0.0203899 0.0206411 0.0208919 0.0211423 0.0213924 0.0216421 0.0218914 0.0221404 0.0223891 0.0226374
          0.0228854 0.0231331 0.0233805 0.0236275 0.0238743 0.0241208 0.0243669 0.0246128 0.0248584 0.0251038 0.0253489 0.0255937
          0.0258382 0.0260825 0.0263266 0.0265704 0.026814 0.0270574 0.0273005 0.0275434 0.0277861 0.0280286 0.0282708 0.0285129
          0.0287548 0.0289964 0.0292379 0.0294792 0.0297203 0.0299612 0.030202 0.0304426 0.030683 0.0309232 0.0311633 0.0314032
          0.031643 0.0318826 0.0321221 0.0323614 0.0326006 0.0328396 0.0330785 0.0333173 0.0335559 0.0337945 0.0340329 0.0342711
          0.0345093 0.0347473 0.0349852 0.035223 0.0354607 0.0356983 0.0359358 0.0361732 0.0364105 0.0366477 0.0368848 0.0371218
          0.0373587 0.0375955 0.0378322 0.0380689 0.0383054 0.0385419 0.0387783 0.0390146 0.0392509 0.039487 0.0397231 0.0399592
          0.0401951 0.040431 0.0406668 0.0409025 0.0411382 0.0413738 0.0416093 0.0418448 0.0420802 0.0423155 0.0425508 0.042786
          0.0430212 0.0432562 0.0434913 0.0437262 0.0439611 0.044196 0.0444308 0.0446655 0.0449001 0.0451347 0.0453693 0.0456037
          0.0458381 0.0460725 0.0463068 0.046541 0.0467751 0.0470092 0.0472432 0.0474771 0.0477109 0.0479447 0.0481784 0.048412
          0.0486456 0.048879 0.0491124 0.0493456 0.0495788 0.0498119 0.0500449 0.0502778 0.0505105 0.0507432 0.0509757 0.0512081
          0.0514404 0.0516726 0.0519046 0.0521365 0.0523682 0.0525998 0.0528312 0.0530624 0.0532935 0.0535243 0.053755 0.0539855
          0.0542158 0.0544458 0.0546756 0.0549052 0.0551345 0.0553635 0.0555923 0.0558207 0.0560489 0.0562767 0.0565042 0.0567314
          0.0569581 0.0571845 0.0574105 0.057636 0.0578611 0.0580857 0.0583098 0.0585334 0.0587564 0.0589788 0.0592006 0.0594218
          0.0596423 0.0598621 0.0600811 0.0602993 0.0605167 0.0607332 0.0609487 0.061163 0.0613731 0.0615597 0.0616426
        </DataArray>
        <DataArray type="Float32" Name="filterVelocity_n" NumberOfComponents="1" format="ascii">
          0.325044 0.325216 0.325549 0.325867 0.326173 0.326472 0.326768 0.32706 0.327352 0.327644 0.327937 0.328231
          0.328528 0.328827 0.329129 0.329435 0.329745 0.330059 0.330376 0.330698 0.331025 0.331356 0.331692 0.332032
          0.332378 0.332729 0.333084 0.333445 0.333811 0.334183 0.334559 0.334941 0.335329 0.335722 0.33612 0.336524
          0.336934 0.337349 0.33777 0.338196 0.338629 0.339067 0.339511 0.339961 0.340417 0.340878 0.341346 0.34182
          0.3423 0.342785 0.343277 0.343776 0.34428 0.344791 0.345308 0.345831 0.346361 0.346897 0.34744 0.347989
          0.348545 0.349107 0.349676 0.350252 0.350834 0.351424 0.35202 0.352623 0.353233 0.353851 0.354475 0.355107
          0.355745 0.356392 0.357045 0.357706 0.358374 0.35905 0.359734 0.360425 0.361124 0.361831 0.362546 0.363269
          0.364 0.364739 0.365486 0.366242 0.367006 0.367778 0.36856 0.369349 0.370148 0.370955 0.371772 0.372597
          0.373432 0.374275 0.375129 0.375991 0.376863 0.377745 0.378637 0.379538 0.38045 0.381372 0.382304 0.383246
          0.384199 0.385162 0.386136 0.387121 0.388118 0.389125 0.390144 0.391174 0.392216 0.393269 0.394335 0.395412
          0.396502 0.397604 0.398719 0.399846 0.400987 0.40214 0.403307 0.404487 0.405681 0.406889 0.408111 0.409347
          0.410598 0.411863 0.413144 0.414439 0.41575 0.417076 0.418418 0.419776 0.421151 0.422542 0.42395 0.425375
          0.426818 0.428278 0.429756 0.431252 0.432767 0.434301 0.435854 0.437426 0.439019 0.440631 0.442264 0.443918
          0.445593 0.44729 0.449008 0.450749 0.452513 0.4543 0.456111 0.457945 0.459805 0.461689 0.463599 0.465534
          0.467496 0.469485 0.471501 0.473546 0.475619 0.477721 0.479852 0.482014 0.484207 0.486432 0.488689 0.490978
          0.493302 0.495659 0.498052 0.50048 0.502945 0.505447 0.507988 0.510568 0.513187 0.515848 0.51855 0.521295
          0.524083 0.526917 0.529796 0.532723 0.535697 0.538721 0.541795 0.544922 0.548101 0.551334 0.554624 0.55797
          0.561376 0.564841 0.568369 0.57196 0.575617 0.579341 0.583133 0.586997 0.590934 0.594945 0.599034 0.603202
          0.607452 0.611787 0.616208 0.620719 0.625322 0.63002 0.634817 0.639714 0.644717 0.649827 0.65505 0.660387
          0.665844 0.671425 0.677133 0.682974 0.688952 0.695072 0.701339 0.707759 0.714338 0.721082 0.727997 0.73509
          0.742368 0.749838 0.75751 0.76539 0.773489 0.781814 0.790378 0.79919 0.80827 0.817699 0.822489
        </DataArray>
        <DataArray type="Float32" Name="temperature" NumberOfComponents="1" format="ascii">
          299.75 299.75 299.75 299.75 299.75 299.75 299.75 299.75 299.75 299.75 299.75 299.75
          299.75 299.75 299.75 299.75 299.75 299.75 299.75 299.75 299.75 299.75 299.75 299.75
          299.75 299.75 299.75 299.75 299.75 299.75 299.75 299.75 299.75 299.75 299.75 299.75
          299.75 299.75 299.75 299.75 299.75 299.75 299.75 299.75 299.75 299.75 299.75 299.75
          299.75 299.75 299.75 299.75 299.75 299.75 299.75 299.75 299.75 299.75 299.75 299.75
          299.75 299.75 299.75 299.75 299.75 299.75 299.75 299.75 299.75 299.75 299.75 299.75
          299.75 299.75 299.75 299.75 299.75 299.75 299.75 299.75 299.75 299.75 299.75 299.75
          299.75 299.75 299.75 299.75 299.75 299.75 299.75 299.75 299.75 299.75 299.75 299.75
          299.75 299.75 299.75 299.75 299.75 299.75 299.75 299.75 299.75 299.75 299.75 299.75
          299.75 299.75 299.75 299.75 299.75 299.75 299.75 299.75 299.75 299.75 299.75 299.75
          299.75 299.75 299.75 299.75 299.75 299.75 299.75 299.75 299.75 299.75 299.75 299.75
          299.75 299.75 299.75 299.75 299.75 299.75 299.75 299.75 299.75 299.75 299.75 299.75
          299.75 299.75 299.75 299.75 299.75 299.75 299.75 299.75 299.75 299.75 299.75 299.75
          299.75 299.75 299.75 299.75 299.75 299.75 299.75 299.75 299.75 299.75 299.75 299.75
          299.75 299.75 299.75 299.75 299.75 299.75 299.75 299.75 299.75 299.75 299.75 299.75
          299.75 299.75 299.75 299.75 299.75 299.75 299.75 299.75 299.75 299.75 299.75 299.75
          299.75 299.75 299.75 299.75 299.75 299.75 299.75 299.75 299.75 299.75 299.75 299.75
          299.75 299.75 299.75 299.75 299.75 299.75 299.75 299.75 299.75 299.75 299.75 299.75
          299.75 299.75 299.75 299.75 299.75 299.75 299.75 299.75 299.75 299.75 299.75 299.75
          299.75 299.75 299.75 299.75 299.75 299.75 299.75 299.75 299.75 299.75 299.75 299.75
          299.75 299.75 299.75 299.75 299.75 299.75 299.75 299.75 299.75 299.75 299.75
        </DataArray>
      </PointData>
      <Points>
        <DataArray type="Float32" Name="Coordinates" NumberOfComponents="3" format="ascii">
          0 0 0 0.4 0 0 0.8 0 0 1.2 0 0
          1.6 0 0 2 0 0 2.4 0 0 2.8 0 0
          3.2 0 0 3.6 0 0 4 0 0 4.4 0 0
          4.8 0 0 5.2 0 0 5.6 0 0 6 0 0
          6.4 0 0 6.8 0 0 7.2 0 0 7.6 0 0
          8 0 0 8.4 0 0 8.8 0 0 9.2 0 0
          9.6 0 0 10 0 0 10.4 0 0 10.8 0 0
          11.2 0 0 11.6 0 0 12 0 0 12.4 0 0
          12.8 0 0 13.2 0 0 13.6 0 0 14 0 0
          14.4 0 0 14.8 0 0 15.2 0 0 15.6 0 0
          16 0 0 16.4 0 0 16.8 0 0 17.2 0 0
          17.6 0 0 18 0 0 18.4 0 0 18.8 0 0
          19.2 0 0 19.6 0 0 20 0 0 20.4 0 0
          20.8 0 0 21.2 0 0 21.6 0 0 22 0 0
          22.4 0 0 22.8 0 0 23.2 0 0 23.6 0 0
          24 0 0 24.4 0 0 24.8 0 0 25.2 0 0
          25.6 0 0 26 0 0 26.4 0 0 26.8 0 0
          27.2 0 0 27.6 0 0 28 0 0 28.4 0 0
          28.8 0 0 29.2 0 0 29.6 0 0 30 0 0
          30.4 0 0 30.8 0 0 31.2 0 0 31.6 0 0
          32 0 0 32.4 0 0 32.8 0 0 33.2 0 0
          33.6 0 0 34 0 0 34.4 0 0 34.8 0 0
          35.2 0 0 35.6 0 0 36 0 0 36.4 0 0
          36.8 0 0 37.2 0 0 37.6 0 0 38 0 0
          38.4 0 0 38.8 0 0 39.2 0 0 39.6 0 0
          40 0 0 40.4 0 0 40.8 0 0 41.2 0 0
          41.6 0 0 42 0 0 42.4 0 0 42.8 0 0
          43.2 0 0 43.6 0 0 44 0 0 44.4 0 0
          44.8 0 0 45.2 0 0 45.6 0 0 46 0 0
          46.4 0 0 46.8 0 0 47.2 0 0 47.6 0 0
          48 0 0 48.4 0 0 48.8 0 0 49.2 0 0
          49.6 0 0 50 0 0 50.4 0 0 50.8 0 0
          51.2 0 0 51.6 0 0 52 0 0 52.4 0 0
          52.8 0 0 53.2 0 0 53.6 0 0 54 0 0
          54.4 0 0 54.8 0 0 55.2 0 0 55.6 0 0
          56 0 0 56.4 0 0 56.8 0 0 57.2 0 0
          57.6 0 0 58 0 0 58.4 0 0 58.8 0 0
          59.2 0 0 59.6 0 0 60 0 0 60.4 0 0
          60.8 0 0 61.2 0 0 61.6 0 0 62 0 0
          62.4 0 0 62.8 0 0 63.2 0 0 63.6 0 0
          64 0 0 64.4 0 0 64.8 0 0 65.2 0 0
          65.6 0 0 66 0 0 66.4 0 0 66.8 0 0
          67.2 0 0 67.6 0 0 68 0 0 68.4 0 0
          68.8 0 0 69.2 0 0 69.6 0 0 70 0 0