<?xml version="1.0"?>
<VTKFile type="PolyData" version="0.1" byte_order="LittleEndian">
  <PolyData>
    <Piece NumberOfLines="250" NumberOfPoints="251">
      <PointData Scalars="pressure_w">
        <DataArray type="Float32" Name="pressure_w" NumberOfComponents="1" format="ascii">
          966586 966548 966467 966358 966225 966073 965902 965713 965507 965284 965043 964786
          964512 964221 963913 963587 963244 962884 962505 962109 961694 961262 960811 960341
          959853 959346 958819 958274 957709 957125 956522 955898 955255 954592 953909 953206
          952482 951738 950974 950188 949382 948555 947707 946838 945948 945036 944103 943149
          942172 941175 940155 939113 938049 936964 935856 934725 933572 932397 931199 929978
          928735 927468 926179 924866 923531 922172 920789 919384 917954 916501 915024 913524
          911999 910451 908878 907281 905660 904014 902344 900650 898930 897186 895417 893623
          891804 889960 888091 886196 884276 882331 880360 878363 876340 874292 872217 870116
          867990 865837 863657 861452 859219 856960 854675 852362 850023 847657 845263 842843
          840395 837920 835417 832887 830329 827744 825130 822489 819820 817123 814397 811644
          808862 806051 803212 800344 797448 794522 791568 788585 785572 782530 779459 776358
          773228 770068 766878 763658 760408 757128 753817 750476 747104 743701 740267 736802
          733306 729778 726219 722628 719005 715350 711662 707942 704189 700403 696584 692731
          688845 684925 680971 676983 672960 668902 664809 660681 656517 652318 648082 643810
          639502 635157 630775 626356 621898 617404 612870 608299 603688 599038 594349 589620
          584850 580039 575188 570295 565360 560383 555362 550299 545192 540040 534844 529603
          524316 518982 513602 508174 502698 497173 491600 485976 480301 474575 468797 462966
          457082 451143 445149 439099 432992 426827 420604 414320 407975 401569 395099 388565
          381966 375299 368565 361761 354886 347938 340916 333818 326642 319387 312050 304629
          297122 289526 281840 274060 266183 258206 250126 241940 233644 225233 216704 208051
          199271 190356 181300 172096 162732 153200 143487 133577 123453 113095 102485
        </DataArray>
        <DataArray type="Float32" Name="pressure_n" NumberOfComponents="1" format="ascii">
          969205 969084 968946 968792 968623 968439 968240 968027 967798 967554 967295 967021
          966730 966424 966101 965762 965406 965033 964643 964236 963811 963368 962907 962428
          961931 961415 960880 960327 959755 959163 958552 957922 957272 956602 955913 955203
          954474 953724 952953 952162 951351 950519 949665 948791 947896 946980 946042 945083
          944102 943100 942075 941029 939962 938872 937759 936625 935468 934289 933087 931863
          930616 929346 928053 926737 925398 924036 922650 921241 919808 918352 916872 915369
          913841 912290 910714 909114 907490 905842 904169 902472 900750 899003 897231 895435
          893613 891767 889895 887998 886075 884127 882154 880154 878130 876079 874002 871899
          869770 867615 865434 863226 860991 858730 856443 854128 851787 849418 847023 844601
          842151 839674 837169 834637 832078 829490 826875 824232 821561 818862 816135 813380
          810596 807784 804943 802074 799176 796249 793293 790308 787294 784250 781178 778076
          774944 771782 768591 765370 762118 758837 755525 752182 748809 745404 741969 738503
          735006 731477 727916 724324 720700 717043 713354 709633 705879 702092 698271 694418
          690531 686610 682654 678665 674641 670582 666488 662359 658194 653994 649758 645485
          641176 636830 632447 628026 623568 619073 614539 609966 605355 600704 596014 591284
          586513 581702 576850 571956 567021 562043 557022 551958 546850 541698 536501 531260
          525972 520638 515257 509829 504352 498827 493253 487629 481954 476228 470449 464618
          458734 452795 446801 440751 434643 428478 422255 415971 409626 403220 396751 390217
          383617 376951 370217 363414 356539 349592 342570 335473 328298 321044 313707 306287
          298781 291187 283502 275723 267848 259873 251795 243611 235316 226908 218381 209731
          200954 192042 182990 173789 164431 154903 145195 135291 125175 114824 104168
        </DataArray>
        <DataArray type="Float32" Name="density_w" NumberOfComponents="1" format="ascii">
          1000 1000 1000 1000 1000 1000 1000 1000 1000 1000 1000 1000
          1000 1000 1000 1000 1000 1000 1000 1000 1000 1000 1000 1000
          1000 1000 1000 1000 1000 1000 1000 1000 1000 1000 1000 1000
          1000 1000 1000 1000 1000 1000 1000 1000 1000 1000 1000 1000
          1000 1000 1000 1000 1000 1000 1000 1000 1000 1000 1000 1000
          1000 1000 1000 1000 1000 1000 1000 1000 1000 1000 1000 1000
          1000 1000 1000 1000 1000 1000 1000 1000 1000 1000 1000 1000
          1000 1000 1000 1000 1000 1000 1000 1000 1000 1000 1000 1000
          1000 1000 1000 1000 1000 1000 1000 1000 1000 1000 1000 1000
          1000 1000 1000 1000 1000 1000 1000 1000 1000 1000 1000 1000
          1000 1000 1000 1000 1000 1000 1000 1000 1000 1000 1000 1000
          1000 1000 1000 1000 1000 1000 1000 1000 1000 1000 1000 1000
          1000 1000 1000 1000 1000 1000 1000 1000 1000 1000 1000 1000
          1000 1000 1000 1000 1000 1000 1000 1000 1000 1000 1000 1000
          1000 1000 1000 1000 1000 1000 1000 1000 1000 1000 1000 1000
          1000 1000 1000 1000 1000 1000 1000 1000 1000 1000 1000 1000
          1000 1000 1000 1000 1000 1000 1000 1000 1000 1000 1000 1000
          1000 1000 1000 1000 1000 1000 1000 1000 1000 1000 1000 1000
          1000 1000 1000 1000 1000 1000 1000 1000 1000 1000 1000 1000
          1000 1000 1000 1000 1000 1000 1000 1000 1000 1000 1000 1000
          1000 1000 1000 1000 1000 1000 1000 1000 1000 1000 1000
        </DataArray>
        <DataArray type="Float32" Name="density_n" NumberOfComponents="1" format="ascii">
          11.2621 11.2607 11.2591 11.2573 11.2554 11.2532 11.2509 11.2484 11.2458 11.2429 11.2399 11.2367
          11.2334 11.2298 11.2261 11.2221 11.218 11.2136 11.2091 11.2044 11.1994 11.1943 11.1889 11.1834
          11.1776 11.1716 11.1654 11.159 11.1523 11.1454 11.1383 11.131 11.1235 11.1157 11.1077 11.0994
          11.0909 11.0822 11.0733 11.0641 11.0547 11.045 11.0351 11.0249 11.0145 11.0039 10.993 10.9818
          10.9704 10.9588 10.9469 10.9347 10.9223 10.9097 10.8967 10.8835 10.8701 10.8564 10.8424 10.8282
          10.8137 10.799 10.7839 10.7686 10.7531 10.7373 10.7212 10.7048 10.6881 10.6712 10.654 10.6365
          10.6188 10.6008 10.5825 10.5639 10.545 10.5258 10.5064 10.4867 10.4667 10.4464 10.4258 10.4049
          10.3838 10.3623 10.3405 10.3185 10.2962 10.2735 10.2506 10.2274 10.2038 10.18 10.1559 10.1314
          10.1067 10.0817 10.0563 10.0306 10.0047 9.97841 9.95183 9.92494 9.89773 9.87021 9.84238 9.81423
          9.78576 9.75698 9.72787 9.69845 9.66871 9.63865 9.60826 9.57755 9.54651 9.51515 9.48346 9.45144
          9.41909 9.38642 9.35341 9.32006 9.28639 9.25238 9.21803 9.18335 9.14832 9.11296 9.07726 9.04121
          9.00482 8.96808 8.931 8.89357 8.85579 8.81765 8.77917 8.74032 8.70113 8.66157 8.62166 8.58138
          8.54074 8.49973 8.45836 8.41661 8.3745 8.33201 8.28915 8.24591 8.20228 8.15828 8.11389 8.06911
          8.02394 7.97838 7.93242 7.88606 7.8393 7.79214 7.74457 7.69659 7.64819 7.59938 7.55016 7.50051
          7.45044 7.39994 7.34901 7.29764 7.24584 7.1936 7.14092 7.08778 7.0342 6.98016 6.92566 6.8707
          6.81526 6.75936 6.70298 6.64611 6.58876 6.53092 6.47257 6.41373 6.35438 6.29451 6.23413 6.17321
          6.11177 6.04979 5.98727 5.92419 5.86055 5.79635 5.73158 5.66623 5.60029 5.53375 5.4666 5.39885
          5.33047 5.26146 5.19181 5.1215 5.05054 4.9789 4.90658 4.83357 4.75984 4.6854 4.61023 4.5343
          4.45762 4.38016 4.30191 4.22285 4.14297 4.06224 3.98065 3.89818 3.81481 3.73051 3.64527 3.55905
          3.47183 3.38358 3.29428 3.20389 3.11238 3.01971 2.92585 2.83075 2.73437 2.63666 2.53758 2.43707
          2.33507 2.23152 2.12634 2.01943 1.91068 1.79997 1.68716 1.57208 1.45453 1.33425 1.21043
        </DataArray>
        <DataArray type="Float32" Name="saturation_w" NumberOfComponents="1" format="ascii">
          0.282783 0.329499 0.364809 0.393978 0.419142 0.441421 0.461486 0.479777 0.496601 0.51218 0.526682 0.540239
          0.552957 0.56492 0.576202 0.586865 0.596961 0.606536 0.615632 0.624285 0.632527 0.640387 0.647893 0.655067
          0.661932 0.668507 0.674812 0.680862 0.686674 0.692261 0.697637 0.702813 0.707801 0.712612 0.717254 0.721738
          0.726071 0.730261 0.734315 0.73824 0.742043 0.74573 0.749305 0.752774 0.756142 0.759414 0.762594 0.765685
          0.768692 0.771619 0.774468 0.777242 0.779946 0.782581 0.78515 0.787657 0.790102 0.79249 0.79482 0.797097
          0.799322 0.801496 0.803621 0.805699 0.807732 0.809721 0.811668 0.813574 0.81544 0.817267 0.819057 0.820811
          0.82253 0.824215 0.825867 0.827488 0.829077 0.830635 0.832165 0.833666 0.835139 0.836585 0.838005 0.839399
          0.840768 0.842113 0.843434 0.844732 0.846007 0.84726 0.848492 0.849703 0.850893 0.852063 0.853213 0.854344
          0.855456 0.85655 0.857626 0.858684 0.859725 0.860748 0.861755 0.862746 0.863721 0.864679 0.865623 0.866551
          0.867464 0.868362 0.869246 0.870116 0.870971 0.871813 0.872642 0.873457 0.874259 0.875048 0.875825 0.876589
          0.877341 0.878081 0.878809 0.879526 0.880231 0.880925 0.881608 0.882281 0.882943 0.883594 0.884236 0.884868
          0.885489 0.886102 0.886705 0.887299 0.887884 0.88846 0.889027 0.889585 0.890135 0.890677 0.89121 0.891735
          0.892252 0.892761 0.893263 0.893757 0.894244 0.894723 0.895195 0.89566 0.896118 0.896569 0.897013 0.89745
          0.897881 0.898305 0.898723 0.899134 0.899539 0.899937 0.900329 0.900714 0.901091 0.901463 0.901827 0.902185
          0.902536 0.902881 0.903219 0.903551 0.903876 0.904195 0.904508 0.904814 0.905114 0.905407 0.905694 0.905975
          0.906249 0.906516 0.906776 0.90703 0.907277 0.907517 0.907751 0.907977 0.908195 0.908407 0.908611 0.908807
          0.908995 0.909176 0.909348 0.909513 0.909668 0.909815 0.909953 0.910082 0.910201 0.910311 0.910411 0.9105
          0.910578 0.910646 0.910702 0.910747 0.910779 0.910798 0.910805 0.910797 0.910775 0.910739 0.910686 0.910618
          0.910532 0.910428 0.910305 0.910162 0.909998 0.909812 0.909603 0.909368 0.909107 0.908817 0.908497 0.908144
          0.907757 0.907332 0.906866 0.906355 0.905797 0.905186 0.904518 0.903785 0.902983 0.902102 0.901132 0.900064
          0.898885 0.897587 0.89615 0.894556 0.892778 0.890784 0.888533 0.885974 0.883039 0.879872 0.898846
        </DataArray>
        <DataArray type="Float32" Name="saturation_n" NumberOfComponents="1" format="ascii">
          0.717217 0.670501 0.635191 0.606022 0.580858 0.558579 0.538514 0.520223 0.503399 0.48782 0.473318 0.459761
          0.447043 0.43508 0.423798 0.413135 0.403039 0.393464 0.384368 0.375715 0.367473 0.359613 0.352107 0.344933
          0.338068 0.331493 0.325188 0.319138 0.313326 0.307739 0.302363 0.297187 0.292199 0.287388 0.282746 0.278262
          0.273929 0.269739 0.265685 0.26176 0.257957 0.25427 0.250695 0.247226 0.243858 0.240586 0.237406 0.234315
          0.231308 0.228381 0.225532 0.222758 0.220054 0.217419 0.21485 0.212343 0.209898 0.20751 0.205179 0.202903
          0.200678 0.198504 0.196379 0.194301 0.192268 0.190279 0.188332 0.186426 0.18456 0.182733 0.180943 0.179189
          0.17747 0.175785 0.174133 0.172512 0.170923 0.169365 0.167835 0.166334 0.164861 0.163415 0.161995 0.160601
          0.159232 0.157887 0.156566 0.155268 0.153993 0.15274 0.151508 0.150297 0.149107 0.147937 0.146787 0.145656
          0.144544 0.14345 0.142374 0.141316 0.140275 0.139252 0.138245 0.137254 0.136279 0.135321 0.134377 0.133449
          0.132536 0.131638 0.130754 0.129884 0.129029 0.128187 0.127358 0.126543 0.125741 0.124952 0.124175 0.123411
          0.122659 0.121919 0.121191 0.120474 0.119769 0.119075 0.118392 0.117719 0.117057 0.116406 0.115764 0.115132
          0.114511 0.113898 0.113295 0.112701 0.112116 0.11154 0.110973 0.110415 0.109865 0.109323 0.10879 0.108265
          0.107748 0.107239 0.106737 0.106243 0.105756 0.105277 0.104805 0.10434 0.103882 0.103431 0.102987 0.10255
          0.102119 0.101695 0.101277 0.100866 0.100461 0.100063 0.0996711 0.0992864 0.0989085 0.0985374 0.098173 0.0978153
          0.097464 0.0971193 0.0967811 0.0964492 0.0961238 0.0958048 0.0954921 0.0951859 0.094886 0.0945926 0.0943057 0.0940252
          0.0937514 0.0934841 0.0932235 0.0929696 0.0927226 0.0924825 0.0922494 0.0920234 0.0918047 0.0915933 0.0913893 0.091193
          0.0910045 0.090824 0.0906515 0.0904874 0.0903317 0.0901848 0.0900469 0.0899181 0.0897987 0.0896891 0.0895895 0.0895002
          0.0894215 0.0893539 0.0892977 0.0892533 0.0892211 0.0892016 0.0891953 0.0892028 0.0892246 0.0892613 0.0893137 0.0893824
          0.0894683 0.0895722 0.089695 0.0898378 0.0900016 0.0901877 0.0903973 0.090632 0.0908933 0.091183 0.0915031 0.0918557
          0.0922432 0.0926685 0.0931344 0.0936446 0.0942029 0.0948138 0.0954823 0.0962145 0.0970172 0.0978985 0.0988677 0.0999363
          0.101115 0.102413 0.10385 0.105444 0.107222 0.109216 0.111467 0.114026 0.116961 0.120128 0.101154
        </DataArray>
        <DataArray type="Float32" Name="relativePerm_w" NumberOfComponents="1" format="ascii">
          0.0219557 0.0340313 0.0456082 0.0569391 0.0681053 0.0791386 0.0900512 0.100845 0.111516 0.122058 0.132464 0.142725
          0.152834 0.162783 0.172568 0.182181 0.191621 0.200884 0.209969 0.218875 0.227601 0.23615 0.244521 0.252718
          0.260743 0.268598 0.276288 0.283814 0.291181 0.298393 0.305453 0.312365 0.319132 0.32576 0.33225 0.338608
          0.344837 0.350941 0.356922 0.362785 0.368533 0.37417 0.379697 0.385119 0.390439 0.395659 0.400782 0.405811
          0.410749 0.415598 0.420361 0.425039 0.429635 0.434152 0.438592 0.442956 0.447247 0.451466 0.455615 0.459697
          0.463712 0.467663 0.471551 0.475378 0.479144 0.482852 0.486503 0.490098 0.493639 0.497126 0.500562 0.503946
          0.507281 0.510567 0.513806 0.516997 0.520144 0.523245 0.526303 0.529317 0.53229 0.535221 0.538112 0.540963
          0.543775 0.546549 0.549285 0.551985 0.554648 0.557275 0.559868 0.562426 0.56495 0.567441 0.569898 0.572324
          0.574718 0.57708 0.579411 0.581712 0.583983 0.586224 0.588435 0.590618 0.592772 0.594897 0.596995 0.599065
          0.601108 0.603124 0.605113 0.607075 0.609012 0.610922 0.612807 0.614667 0.616501 0.618311 0.620097 0.621859
          0.623596 0.625311 0.627002 0.62867 0.630316 0.63194 0.633541 0.635121 0.63668 0.638218 0.639735 0.641232
          0.642709 0.644166 0.645605 0.647024 0.648424 0.649806 0.651169 0.652514 0.653841 0.65515 0.656441 0.657715
          0.658972 0.660211 0.661435 0.662641 0.663832 0.665007 0.666166 0.667309 0.668437 0.669549 0.670646 0.671729
          0.672796 0.673849 0.674887 0.675911 0.676919 0.677914 0.678898 0.679877 0.680853 0.681823 0.682788 0.683748
          0.6847 0.685645 0.686583 0.687512 0.688432 0.689343 0.690244 0.691135 0.692014 0.692881 0.693736 0.694578
          0.695406 0.69622 0.697019 0.697802 0.698569 0.699319 0.700051 0.700765 0.70146 0.702134 0.702788 0.70342
          0.70403 0.704616 0.705178 0.705716 0.706227 0.706711 0.707166 0.707593 0.70799 0.708355 0.708687 0.708986
          0.709249 0.709476 0.709665 0.709814 0.709923 0.709988 0.710009 0.709984 0.709911 0.709787 0.709611 0.70938
          0.709093 0.708745 0.708335 0.70786 0.707316 0.706701 0.706011 0.705242 0.704391 0.703452 0.702423 0.701297
          0.700071 0.698738 0.697293 0.69573 0.694044 0.692227 0.690273 0.688175 0.685927 0.683523 0.680959 0.67823
          0.675292 0.672067 0.668517 0.664597 0.660251 0.655408 0.649983 0.643863 0.636908 0.629478 0.675194
        </DataArray>
        <DataArray type="Float32" Name="relativePerm_n" NumberOfComponents="1" format="ascii">
          0.568315 0.500917 0.452091 0.413254 0.380902 0.353189 0.328999 0.3076 0.28848 0.271265 0.255669 0.241469
          0.228488 0.216577 0.205615 0.1955 0.186142 0.177466 0.169405 0.161902 0.154905 0.148369 0.142253 0.136523
          0.131146 0.126093 0.121338 0.116857 0.11263 0.108638 0.104863 0.101289 0.0979016 0.0946884 0.091637 0.0887364
          0.0859767 0.0833486 0.0808437 0.0784541 0.0761727 0.0739929 0.0719085 0.0699139 0.0680038 0.0661735 0.0644183 0.0627341
          0.0611171 0.0595635 0.0580701 0.0566336 0.0552511 0.0539199 0.0526374 0.0514012 0.050209 0.0490587 0.0479483 0.0468759
          0.0458398 0.0448384 0.04387 0.0429332 0.0420267 0.041149 0.040299 0.0394755 0.0386774 0.0379036 0.0371532 0.0364252
          0.0357188 0.035033 0.0343671 0.0337203 0.0330919 0.0324811 0.0318875 0.0313102 0.0307488 0.0302027 0.0296712 0.029154
          0.0286505 0.0281602 0.0276827 0.0272176 0.0267644 0.0263228 0.0258923 0.0254728 0.0250637 0.0246647 0.0242756 0.0238961
          0.0235258 0.0231644 0.0228118 0.0224676 0.0221317 0.0218037 0.0214835 0.0211708 0.0208655 0.0205672 0.0202759 0.0199914
          0.0197134 0.0194419 0.0191765 0.0189172 0.0186639 0.0184163 0.0181743 0.0179377 0.0177065 0.0174805 0.0172595 0.0170434
          0.0168321 0.0166255 0.0164234 0.0162258 0.0160324 0.0158433 0.0156582 0.0154772 0.0153 0.0151265 0.0149568 0.0147906
          0.0146279 0.0144685 0.0143125 0.0141596 0.0140099 0.0138633 0.0137197 0.013579 0.0134412 0.0133062 0.0131739 0.0130443
          0.0129173 0.0127928 0.0126709 0.0125513 0.0124341 0.0123192 0.0122066 0.0120962 0.0119879 0.0118818 0.0117777 0.0116757
          0.0115756 0.0114775 0.0113814 0.0112871 0.0111947 0.0111041 0.0110154 0.0109286 0.0108437 0.0107607 0.0106795 0.0106
          0.0105224 0.0104464 0.0103721 0.0102995 0.0102285 0.0101592 0.0100915 0.0100254 0.00996095 0.00989805 0.00983673 0.00977698
          0.00971882 0.00966222 0.0096072 0.00955376 0.00950189 0.00945162 0.00940295 0.00935588 0.00931043 0.00926662 0.00922446 0.00918397
          0.00914516 0.00910807 0.00907272 0.00903914 0.00900736 0.00897741 0.00894932 0.00892315 0.00889893 0.00887672 0.00885655 0.0088385
          0.00882262 0.00880897 0.00879763 0.00878867 0.00878218 0.00877826 0.00877699 0.0087785 0.00878289 0.00879029 0.00880085 0.00881472
          0.00883206 0.00885306 0.00887792 0.00890686 0.00894012 0.00897799 0.00902074 0.00906873 0.00912231 0.0091819 0.00924796 0.00932102
          0.00940166 0.00949055 0.00958844 0.00969619 0.00981481 0.00994545 0.0100894 0.0102483 0.0104239 0.0106185 0.0108346 0.0110754
          0.011344 0.0116439 0.0119802 0.0123592 0.0127889 0.0132796 0.0138446 0.0145016 0.0152742 0.0161307 0.011353
        </DataArray>
        <DataArray type="Float32" Name="porosity" NumberOfComponents="1" format="ascii">
          0.558 0.558 0.558 0.558 0.558 0.558 0.558 0.558 0.558 0.558 0.558 0.558
          0.558 0.558 0.558 0.558 0.558 0.558 0.558 0.558 0.558 0.558 0.558 0.558
          0.558 0.558 0.558 0.558 0.558 0.558 0.558 0.558 0.558 0.558 0.558 0.558
          0.558 0.558 0.558 0.558 0.558 0.558 0.558 0.558 0.558 0.558 0.558 0.558
          0.558 0.558 0.558 0.558 0.558 0.558 0.558 0.558 0.558 0.558 0.558 0.558
          0.558 0.558 0.558 0.558 0.558 0.558 0.558 0.558 0.558 0.558 0.558 0.558
          0.558 0.558 0.558 0.558 0.558 0.558 0.558 0.558 0.558 0.558 0.558 0.558
          0.558 0.558 0.558 0.558 0.558 0.558 0.558 0.558 0.558 0.558 0.558 0.558
          0.558 0.558 0.558 0.558 0.558 0.558 0.558 0.558 0.558 0.558 0.558 0.558
          0.558 0.558 0.558 0.558 0.558 0.558 0.558 0.558 0.558 0.558 0.558 0.558
          0.558 0.558 0.558 0.558 0.558 0.558 0.558 0.558 0.558 0.558 0.558 0.558
          0.558 0.558 0.558 0.558 0.558 0.558 0.558 0.558 0.558 0.558 0.558 0.558
          0.558 0.558 0.558 0.558 0.558 0.558 0.558 0.558 0.558 0.558 0.558 0.558
          0.558 0.558 0.558 0.558 0.558 0.558 0.558 0.558 0.558 0.558 0.558 0.558
          0.558 0.558 0.558 0.558 0.558 0.558 0.558 0.558 0.558 0.558 0.558 0.558
          0.558 0.558 0.558 0.558 0.558 0.558 0.558 0.558 0.558 0.558 0.558 0.558
          0.558 0.558 0.558 0.558 0.558 0.558 0.558 0.558 0.558 0.558 0.558 0.558
          0.558 0.558 0.558 0.558 0.558 0.558 0.558 0.558 0.558 0.558 0.558 0.558
          0.558 0.558 0.558 0.558 0.558 0.558 0.558 0.558 0.558 0.558 0.558 0.558
          0.558 0.558 0.558 0.558 0.558 0.558 0.558 0.558 0.558 0.558 0.558 0.558
          0.558 0.558 0.558 0.558 0.558 0.558 0.558 0.558 0.558 0.558 0.558
        </DataArray>
        <DataArray type="Float32" Name="filterVelocity_w" NumberOfComponents="1" format="ascii">
          0.000116819 0.00031966 0.000568174 0.000861442 0.00118152 0.00152271 0.00188171 0.00225606 0.00264375 0.00304304 0.00345238 0.00387038
          0.0042958 0.00472753 0.00516454 0.00560595 0.00605093 0.00649879 0.00694888 0.00740063 0.00785356 0.00830723 0.00876126 0.00921532
          0.00966912 0.0101224 0.010575 0.0110266 0.0114771 0.0119265 0.0123745 0.0128211 0.0132662 0.0137097 0.0141515 0.0145917
          0.0150302 0.0154669 0.0159018 0.016335 0.0167664 0.0171959 0.0176237 0.0180497 0.0184739 0.0188964 0.019317 0.0197359
          0.0201531 0.0205686 0.0209823 0.0213944 0.0218048 0.0222135 0.0226207 0.0230262 0.0234301 0.0238325 0.0242333 0.0246326
          0.0250305 0.0254268 0.0258217 0.0262151 0.0266072 0.0269978 0.0273871 0.027775 0.0281616 0.0285469 0.0289309 0.0293136
          0.0296951 0.0300754 0.0304544 0.0308322 0.0312089 0.0315844 0.0319587 0.0323319 0.032704 0.033075 0.0334449 0.0338137
          0.0341815 0.0345483 0.034914 0.0352787 0.0356424 0.0360051 0.0363668 0.0367275 0.0370873 0.0374461 0.037804 0.038161
          0.038517 0.0388721 0.0392263 0.0395796 0.039932 0.0402835 0.0406341 0.0409839 0.0413327 0.0416807 0.0420277 0.0423739
          0.0427192 0.0430637 0.0434073 0.04375 0.0440918 0.0444328 0.0447729 0.0451122 0.0454506 0.0457882 0.046125 0.0464609
          0.0467961 0.0471306 0.0474642 0.0477971 0.0481293 0.0484608 0.0487916 0.0491218 0.0494513 0.0497802 0.0501086 0.0504365
          0.0507639 0.0510908 0.0514173 0.0517435 0.0520693 0.0523947 0.0527199 0.0530447 0.0533693 0.0536936 0.0540177 0.0543416
          0.0546655 0.0549892 0.0553129 0.0556366 0.0559603 0.0562841 0.056608 0.0569321 0.0572565 0.057581 0.0579059 0.0582311
          0.0585567 0.0588827 0.0592091 0.059536 0.0598635 0.0601915 0.0605201 0.0608494 0.0611794 0.0615101 0.0618416 0.0621739
          0.0625072 0.0628413 0.0631763 0.0635124 0.0638495 0.0641876 0.0645267 0.064867 0.0652085 0.065551 0.0658948 0.0662398
          0.066586 0.0669335 0.0672823 0.0676324 0.0679838 0.0683366 0.0686907 0.0690463 0.0694033 0.0697618 0.0701218 0.0704832
          0.0708463 0.0712108 0.071577 0.0719447 0.0723142 0.0726852 0.073058 0.0734326 0.0738089 0.074187 0.0745669 0.0749487
          0.0753325 0.0757181 0.0761058 0.0764955 0.0768873 0.0772812 0.0776773 0.0780756 0.0784763 0.0788792 0.0792846 0.0796925
          0.0801028 0.0805159 0.0809316 0.08135 0.0817714 0.0821957 0.082623 0.0830536 0.0834874 0.0839246 0.0843654 0.0848098
          0.0852581 0.0857105 0.086167 0.0866279 0.0870935 0.0875639 0.0880396 0.0885206 0.0890076 0.0895007 0.0900005 0.0905075
          0.0910222 0.0915452 0.092077 0.0926183 0.0931698 0.0937322 0.0943065 0.0948936 0.0954944 0.0961092 0.0964189
        </DataArray>
        <DataArray type="Float32" Name="filterVelocity_n" NumberOfComponents="1" format="ascii">
          0.0889572 0.0890923 0.089335 0.0895276 0.0896777 0.0897907 0.089871 0.0899223 0.0899478 0.0899501 0.0899318 0.0898951
          0.0898418 0.0897739 0.0896928 0.0896001 0.089497 0.0893847 0.0892643 0.0891367 0.0890028 0.0888633 0.088719 0.0885704
          0.0884182 0.0882628 0.0881047 0.0879442 0.0877818 0.0876178 0.0874525 0.0872861 0.087119 0.0869513 0.0867832 0.0866149
          0.0864466 0.0862784 0.0861105 0.0859431 0.0857761 0.0856097 0.0854441 0.0852793 0.0851154 0.0849524 0.0847905 0.0846297
          0.0844701 0.0843118 0.0841547 0.0839989 0.0838445 0.0836916 0.0835401 0.0833902 0.0832418 0.083095 0.0829498 0.0828062
          0.0826643 0.0825242 0.0823858 0.0822491 0.0821143 0.0819813 0.0818501 0.0817209 0.0815935 0.081468 0.0813446 0.0812231
          0.0811036 0.0809861 0.0808707 0.0807573 0.0806461 0.080537 0.0804301 0.0803253 0.0802227 0.0801224 0.0800243 0.0799285
          0.079835 0.0797439 0.0796551 0.0795688 0.0794848 0.0794033 0.0793243 0.0792478 0.0791739 0.0791026 0.0790339 0.0789678
          0.0789045 0.0788439 0.078786 0.078731 0.0786788 0.0786295 0.0785832 0.0785398 0.0784995 0.0784622 0.0784281 0.0783972
          0.0783695 0.0783451 0.078324 0.0783063 0.0782921 0.0782814 0.0782742 0.0782706 0.0782707 0.0782745 0.0782821 0.0782934
          0.0783087 0.0783278 0.078351 0.0783782 0.0784094 0.0784448 0.0784845 0.0785283 0.0785765 0.078629 0.0786858 0.0787472
          0.0788131 0.0788835 0.0789585 0.0790382 0.0791227 0.079212 0.0793062 0.0794055 0.0795098 0.0796194 0.0797342 0.0798544
          0.07998 0.0801112 0.080248 0.0803906 0.080539 0.0806933 0.0808536 0.0810202 0.081193 0.0813722 0.0815581 0.0817506
          0.0819499 0.0821563 0.0823698 0.0825908 0.0828192 0.0830554 0.0832995 0.0835517 0.0838123 0.0840814 0.0843593 0.0846462
          0.0849424 0.0852481 0.0855637 0.0858893 0.0862254 0.0865722 0.0869302 0.0872996 0.0876809 0.0880745 0.0884808 0.0889003
          0.0893334 0.0897806 0.0902425 0.0907197 0.0912126 0.091722 0.0922485 0.0927927 0.0933555 0.0939375 0.0945396 0.0951626
          0.0958074 0.0964751 0.0971666 0.0978831 0.0986256 0.0993954 0.100194 0.101022 0.101882 0.102775 0.103703 0.104667
          0.105669 0.106713 0.107799 0.10893 0.110109 0.111338 0.112621 0.113961 0.115361 0.116825 0.118357 0.119962
          0.121645 0.12341 0.125265 0.127215 0.129267 0.13143 0.133712 0.136123 0.138673 0.141374 0.14424 0.147286
          0.150528 0.153986 0.157682 0.161639 0.165887 0.170458 0.17539 0.180727 0.186519 0.192829 0.199727 0.2073
          0.215651 0.224907 0.235225 0.246801 0.259886 0.2748 0.291964 0.311946 0.33552 0.36379 0.378511
        </DataArray>
        <DataArray type="Float32" Name="temperature" NumberOfComponents="1" format="ascii">
          299.75 299.75 299.75 299.75 299.75 299.75 299.75 299.75 299.75 299.75 299.75 299.75
          299.75 299.75 299.75 299.75 299.75 299.75 299.75 299.75 299.75 299.75 299.75 299.75
          299.75 299.75 299.75 299.75 299.75 299.75 299.75 299.75 299.75 299.75 299.75 299.75
          299.75 299.75 299.75 299.75 299.75 299.75 299.75 299.75 299.75 299.75 299.75 299.75
          299.75 299.75 299.75 299.75 299.75 299.75 299.75 299.75 299.75 299.75 299.75 299.75
          299.75 299.75 299.75 299.75 299.75 299.75 299.75 299.75 299.75 299.75 299.75 299.75
          299.75 299.75 299.75 299.75 299.75 299.75 299.75 299.75 299.75 299.75 299.75 299.75
          299.75 299.75 299.75 299.75 299.75 299.75 299.75 299.75 299.75 299.75 299.75 299.75
          299.75 299.75 299.75 299.75 299.75 299.75 299.75 299.75 299.75 299.75 299.75 299.75
          299.75 299.75 299.75 299.75 299.75 299.75 299.75 299.75 299.75 299.75 299.75 299.75
          299.75 299.75 299.75 299.75 299.75 299.75 299.75 299.75 299.75 299.75 299.75 299.75
          299.75 299.75 299.75 299.75 299.75 299.75 299.75 299.75 299.75 299.75 299.75 299.75
          299.75 299.75 299.75 299.75 299.75 299.75 299.75 299.75 299.75 299.75 299.75 299.75
          299.75 299.75 299.75 299.75 299.75 299.75 299.75 299.75 299.75 299.75 299.75 299.75
          299.75 299.75 299.75 299.75 299.75 299.75 299.75 299.75 299.75 299.75 299.75 299.75
          299.75 299.75 299.75 299.75 299.75 299.75 299.75 299.75 299.75 299.75 299.75 299.75
          299.75 299.75 299.75 299.75 299.75 299.75 299.75 299.75 299.75 299.75 299.75 299.75
          299.75 299.75 299.75 299.75 299.75 299.75 299.75 299.75 299.75 299.75 299.75 299.75
          299.75 299.75 299.75 299.75 299.75 299.75 299.75 299.75 299.75 299.75 299.75 299.75
          299.75 299.75 299.75 299.75 299.75 299.75 299.75 299.75 299.75 299.75 299.75 299.75
          299.75 299.75 299.75 299.75 299.75 299.75 299.75 299.75 299.75 299.75 299.75
        </DataArray>
      </PointData>
      <Points>
        <DataArray type="Float32" Name="Coordinates" NumberOfComponents="3" format="ascii">
          0 0 0 0.4 0 0 0.8 0 0 1.2 0 0
          1.6 0 0 2 0 0 2.4 0 0 2.8 0 0
          3.2 0 0 3.6 0 0 4 0 0 4.4 0 0
          4.8 0 0 5.2 0 0 5.6 0 0 6 0 0
          6.4 0 0 6.8 0 0 7.2 0 0 7.6 0 0
          8 0 0 8.4 0 0 8.8 0 0 9.2 0 0
          9.6 0 0 10 0 0 10.4 0 0 10.8 0 0
          11.2 0 0 11.6 0 0 12 0 0 12.4 0 0
          12.8 0 0 13.2 0 0 13.6 0 0 14 0 0
          14.4 0 0 14.8 0 0 15.2 0 0 15.6 0 0
          16 0 0 16.4 0 0 16.8 0 0 17.2 0 0
          17.6 0 0 18 0 0 18.4 0 0 18.8 0 0
          19.2 0 0 19.6 0 0 20 0 0 20.4 0 0
          20.8 0 0 21.2 0 0 21.6 0 0 22 0 0
          22.4 0 0 22.8 0 0 23.2 0 0 23.6 0 0
          24 0 0 24.4 0 0 24.8 0 0 25.2 0 0
          25.6 0 0 26 0 0 26.4 0 0 26.8 0 0
          27.2 0 0 27.6 0 0 28 0 0 28.4 0 0
          28.8 0 0 29.2 0 0 29.6 0 0 30 0 0
          30.4 0 0 30.8 0 0 31.2 0 0 31.6 0 0
          32 0 0 32.4 0 0 32.8 0 0 33.2 0 0
          33.6 0 0 34 0 0 34.4 0 0 34.8 0 0
          35.2 0 0 35.6 0 0 36 0 0 36.4 0 0
          36.8 0 0 37.2 0 0 37.6 0 0 38 0 0
          38.4 0 0 38.8 0 0 39.2 0 0 39.6 0 0
          40 0 0 40.4 0 0 40.8 0 0 41.2 0 0
          41.6 0 0 42 0 0 42.4 0 0 42.8 0 0
          43.2 0 0 43.6 0 0 44 0 0 44.4 0 0
          44.8 0 0 45.2 0 0 45.6 0 0 46 0 0
          46.4 0 0 46.8 0 0 47.2 0 0 47.6 0 0
          48 0 0 48.4 0 0 48.8 0 0 49.2 0 0
          49.6 0 0 50 0 0 50.4 0 0 50.8 0 0
          51.2 0 0 51.6 0 0 52 0 0 52.4 0 0
          52.8 0 0 53.2 0 0 53.6 0 0 54 0 0
          54.4 0 0 54.8 0 0 55.2 0 0 55.6 0 0