<?xml version="1.0"?>
<VTKFile type="PolyData" version="0.1" byte_order="LittleEndian">
  <PolyData>
    <Piece NumberOfLines="250" NumberOfPoints="251">
      <PointData Scalars="pressure_w">
        <DataArray type="Float32" Name="pressure_w" NumberOfComponents="1" format="ascii">
          262313 262289 262234 262159 262069 261965 261851 261726 261592 261449 261299 261140
          260975 260802 260622 260436 260244 260045 259841 259630 259414 259192 258965 258732
          258494 258250 258002 257748 257489 257226 256957 256684 256406 256123 255835 255543
          255246 254945 254639 254328 254014 253695 253371 253043 252711 252375 252034 251689
          251340 250987 250630 250268 249903 249533 249160 248782 248400 248015 247625 247232
          246834 246433 246027 245618 245205 244788 244367 243943 243514 243082 242646 242206
          241762 241315 240864 240409 239950 239487 239021 238551 238078 237600 237119 236635
          236146 235654 235158 234659 234156 233649 233139 232624 232107 231585 231060 230532
          229999 229463 228924 228380 227833 227283 226729 226171 225610 225045 224476 223904
          223328 222748 222165 221578 220988 220394 219796 219195 218590 217981 217369 216753
          216134 215510 214884 214253 213619 212981 212340 211695 211046 210393 209737 209077
          208414 207746 207075 206401 205722 205040 204354 203665 202971 202274 201574 200869
          200160 199448 198732 198013 197289 196562 195830 195095 194356 193614 192867 192117
          191362 190604 189842 189076 188305 187531 186753 185972 185186 184396 183602 182804
          182002 181196 180386 179571 178753 177930 177104 176273 175438 174599 173756 172908
          172057 171201 170340 169476 168607 167733 166856 165974 165087 164197 163301 162401
          161497 160588 159675 158757 157834 156907 155975 155039 154097 153151 152201 151245
          150285 149319 148349 147374 146394 145408 144418 143423 142422 141416 140406 139389
          138368 137341 136309 135271 134228 133180 132125 131065 130000 128928 127851 126768
          125679 124584 123483 122376 121263 120144 119018 117885 116747 115601 114449 113291
          112125 110953 109773 108587 107393 106192 104984 103768 102545 101321 100166
        </DataArray>
        <DataArray type="Float32" Name="pressure_n" NumberOfComponents="1" format="ascii">
          264821 264734 264635 264527 264410 264284 264150 264008 263860 263704 263541 263372
          263196 263014 262826 262632 262432 262226 262015 261798 261576 261348 261116 260878
          260635 260387 260134 259876 259613 259345 259073 258796 258514 258228 257937 257641
          257341 257037 256728 256415 256098 255776 255450 255119 254785 254446 254103 253756
          253405 253050 252690 252327 251959 251588 251212 250833 250449 250062 249670 249275
          248876 248473 248066 247655 247240 246822 246400 245973 245544 245110 244672 244231
          243786 243337 242885 242429 241969 241505 241038 240567 240092 239613 239131 238645
          238156 237663 237166 236665 236161 235654 235142 234627 234108 233586 233060 232530
          231997 231460 230920 230376 229828 229277 228722 228163 227601 227036 226466 225893
          225316 224736 224152 223565 222974 222379 221781 221179 220573 219964 219351 218735
          218115 217491 216864 216232 215598 214959 214317 213672 213023 212370 211713 211053
          210388 209721 209049 208374 207695 207013 206327 205637 204943 204245 203544 202839
          202130 201418 200702 199982 199258 198530 197798 197063 196324 195581 194834 194083
          193329 192570 191808 191041 190271 189497 188719 187936 187150 186360 185566 184768
          183966 183160 182349 181535 180717 179894 179067 178236 177401 176562 175719 174871
          174020 173164 172303 171439 170570 169696 168819 167937 167050 166160 165264 164365
          163460 162552 161638 160720 159798 158871 157939 157003 156062 155116 154165 153210
          152249 151284 150314 149339 148359 147374 146384 145389 144389 143384 142373 141357
          140336 139310 138278 137241 136198 135150 134096 133036 131971 130900 129824 128741
          127653 126558 125458 124351 123239 122120 120994 119863 118725 117580 116429 115271
          114106 112934 111756 110570 109377 108177 106970 105754 104530 103286 101878
        </DataArray>
        <DataArray type="Float32" Name="density_w" NumberOfComponents="1" format="ascii">
          1000 1000 1000 1000 1000 1000 1000 1000 1000 1000 1000 1000
          1000 1000 1000 1000 1000 1000 1000 1000 1000 1000 1000 1000
          1000 1000 1000 1000 1000 1000 1000 1000 1000 1000 1000 1000
          1000 1000 1000 1000 1000 1000 1000 1000 1000 1000 1000 1000
          1000 1000 1000 1000 1000 1000 1000 1000 1000 1000 1000 1000
          1000 1000 1000 1000 1000 1000 1000 1000 1000 1000 1000 1000
          1000 1000 1000 1000 1000 1000 1000 1000 1000 1000 1000 1000
          1000 1000 1000 1000 1000 1000 1000 1000 1000 1000 1000 1000
          1000 1000 1000 1000 1000 1000 1000 1000 1000 1000 1000 1000
          1000 1000 1000 1000 1000 1000 1000 1000 1000 1000 1000 1000
          1000 1000 1000 1000 1000 1000 1000 1000 1000 1000 1000 1000
          1000 1000 1000 1000 1000 1000 1000 1000 1000 1000 1000 1000
          1000 1000 1000 1000 1000 1000 1000 1000 1000 1000 1000 1000
          1000 1000 1000 1000 1000 1000 1000 1000 1000 1000 1000 1000
          1000 1000 1000 1000 1000 1000 1000 1000 1000 1000 1000 1000
          1000 1000 1000 1000 1000 1000 1000 1000 1000 1000 1000 1000
          1000 1000 1000 1000 1000 1000 1000 1000 1000 1000 1000 1000
          1000 1000 1000 1000 1000 1000 1000 1000 1000 1000 1000 1000
          1000 1000 1000 1000 1000 1000 1000 1000 1000 1000 1000 1000
          1000 1000 1000 1000 1000 1000 1000 1000 1000 1000 1000 1000
          1000 1000 1000 1000 1000 1000 1000 1000 1000 1000 1000
        </DataArray>
        <DataArray type="Float32" Name="density_n" NumberOfComponents="1" format="ascii">
          3.07721 3.0762 3.07505 3.0738 3.07243 3.07097 3.06941 3.06777 3.06604 3.06423 3.06233 3.06037
          3.05833 3.05621 3.05402 3.05177 3.04945 3.04706 3.0446 3.04208 3.0395 3.03686 3.03415 3.03139
          3.02857 3.02568 3.02274 3.01974 3.01669 3.01358 3.01042 3.0072 3.00392 3.0006 2.99722 2.99378
          2.9903 2.98676 2.98317 2.97953 2.97585 2.97211 2.96832 2.96448 2.96059 2.95665 2.95267 2.94864
          2.94455 2.94043 2.93625 2.93203 2.92776 2.92344 2.91907 2.91466 2.91021 2.90571 2.90116 2.89657
          2.89193 2.88724 2.88252 2.87774 2.87292 2.86806 2.86315 2.8582 2.85321 2.84817 2.84308 2.83796
          2.83279 2.82757 2.82231 2.81701 2.81167 2.80628 2.80085 2.79537 2.78986 2.7843 2.7787 2.77305
          2.76736 2.76163 2.75586 2.75004 2.74419 2.73829 2.73234 2.72636 2.72033 2.71426 2.70815 2.702
          2.6958 2.68956 2.68328 2.67696 2.6706 2.66419 2.65774 2.65125 2.64472 2.63814 2.63153 2.62487
          2.61817 2.61143 2.60464 2.59782 2.59095 2.58404 2.57708 2.57009 2.56305 2.55597 2.54885 2.54169
          2.53448 2.52724 2.51995 2.51261 2.50524 2.49782 2.49036 2.48286 2.47531 2.46773 2.4601 2.45242
          2.44471 2.43695 2.42915 2.4213 2.41341 2.40548 2.39751 2.38949 2.38143 2.37332 2.36518 2.35698
          2.34875 2.34047 2.33215 2.32378 2.31537 2.30691 2.29841 2.28987 2.28128 2.27264 2.26396 2.25524
          2.24647 2.23766 2.2288 2.21989 2.21094 2.20194 2.1929 2.18381 2.17468 2.1655 2.15627 2.147
          2.13768 2.12831 2.11889 2.10943 2.09992 2.09036 2.08075 2.0711 2.0614 2.05165 2.04185 2.032
          2.0221 2.01215 2.00216 1.99211 1.98201 1.97187 1.96167 1.95142 1.94112 1.93077 1.92036 1.90991
          1.8994 1.88884 1.87823 1.86756 1.85685 1.84607 1.83525 1.82437 1.81343 1.80244 1.79139 1.78029
          1.76913 1.75792 1.74664 1.73532 1.72393 1.71248 1.70098 1.68942 1.67779 1.66611 1.65437 1.64256
          1.6307 1.61877 1.60678 1.59473 1.58261 1.57043 1.55819 1.54588 1.5335 1.52106 1.50855 1.49597
          1.48332 1.4706 1.45782 1.44496 1.43203 1.41903 1.40595 1.3928 1.37958 1.36628 1.3529 1.33944
          1.32591 1.31229 1.2986 1.28482 1.27096 1.25701 1.24298 1.22886 1.21464 1.20018 1.18382
        </DataArray>
        <DataArray type="Float32" Name="saturation_w" NumberOfComponents="1" format="ascii">
          0.346415 0.38666 0.416336 0.439909 0.459437 0.476067 0.490514 0.503255 0.514627 0.524876 0.534187 0.542706
          0.550544 0.557793 0.564528 0.570809 0.576689 0.582211 0.587411 0.592321 0.596968 0.601377 0.605566 0.609556
          0.613362 0.616998 0.620476 0.62381 0.627007 0.630079 0.633033 0.635876 0.638617 0.641259 0.643811 0.646276
          0.64866 0.650967 0.653202 0.655367 0.657467 0.659504 0.661482 0.663404 0.665272 0.667089 0.668856 0.670576
          0.672252 0.673884 0.675475 0.677026 0.678539 0.680016 0.681457 0.682864 0.684239 0.685582 0.686895 0.688178
          0.689433 0.69066 0.691861 0.693036 0.694187 0.695313 0.696416 0.697496 0.698555 0.699592 0.700608 0.701604
          0.702581 0.703539 0.704478 0.705399 0.706302 0.707189 0.708059 0.708912 0.70975 0.710572 0.71138 0.712172
          0.71295 0.713714 0.714464 0.715201 0.715925 0.716635 0.717333 0.718019 0.718693 0.719355 0.720005 0.720644
          0.721271 0.721888 0.722494 0.723089 0.723674 0.724249 0.724813 0.725368 0.725914 0.726449 0.726976 0.727493
          0.728001 0.7285 0.72899 0.729472 0.729945 0.730409 0.730866 0.731314 0.731754 0.732186 0.73261 0.733027
          0.733435 0.733836 0.73423 0.734616 0.734995 0.735367 0.735731 0.736089 0.736439 0.736782 0.737119 0.737448
          0.737771 0.738087 0.738397 0.7387 0.738996 0.739286 0.739569 0.739846 0.740117 0.740381 0.740639 0.740891
          0.741136 0.741376 0.741609 0.741836 0.742057 0.742272 0.742481 0.742684 0.742881 0.743071 0.743256 0.743435
          0.743609 0.743776 0.743937 0.744092 0.744242 0.744385 0.744523 0.744655 0.74478 0.7449 0.745014 0.745123
          0.745225 0.745321 0.745411 0.745496 0.745574 0.745647 0.745713 0.745774 0.745828 0.745876 0.745918 0.745954
          0.745984 0.746008 0.746025 0.746037 0.746041 0.74604 0.746032 0.746018 0.745997 0.745969 0.745935 0.745894
          0.745847 0.745793 0.745731 0.745663 0.745588 0.745506 0.745417 0.74532 0.745216 0.745105 0.744986 0.74486
          0.744725 0.744583 0.744433 0.744275 0.744109 0.743935 0.743752 0.74356 0.74336 0.743151 0.742933 0.742706
          0.742469 0.742223 0.741968 0.741702 0.741427 0.741141 0.740845 0.740538 0.74022 0.739891 0.73955 0.739198
          0.738835 0.738458 0.73807 0.737668 0.737254 0.736826 0.736384 0.735928 0.735458 0.734972 0.734471 0.733955
          0.733422 0.732872 0.732306 0.731721 0.731118 0.730497 0.729867 0.729328 0.730021 0.744595 0.887186
        </DataArray>
        <DataArray type="Float32" Name="saturation_n" NumberOfComponents="1" format="ascii">
          0.653585 0.61334 0.583664 0.560091 0.540563 0.523933 0.509486 0.496745 0.485373 0.475124 0.465813 0.457294
          0.449456 0.442207 0.435473 0.429191 0.423311 0.417789 0.412589 0.407679 0.403032 0.398623 0.394434 0.390444
          0.386638 0.383002 0.379524 0.37619 0.372993 0.369921 0.366967 0.364124 0.361383 0.358741 0.356189 0.353724
          0.35134 0.349032 0.346798 0.344633 0.342533 0.340496 0.338518 0.336596 0.334728 0.332911 0.331144 0.329424
          0.327748 0.326116 0.324525 0.322974 0.321461 0.319984 0.318543 0.317136 0.315761 0.314418 0.313105 0.311822
          0.310567 0.30934 0.308139 0.306964 0.305813 0.304687 0.303584 0.302504 0.301445 0.300408 0.299392 0.298396
          0.297419 0.296461 0.295522 0.294601 0.293698 0.292811 0.291941 0.291088 0.29025 0.289428 0.288621 0.287828
          0.28705 0.286286 0.285536 0.284799 0.284076 0.283365 0.282667 0.281981 0.281307 0.280645 0.279995 0.279356
          0.278729 0.278112 0.277506 0.276911 0.276326 0.275751 0.275187 0.274632 0.274086 0.273551 0.273024 0.272507
          0.271999 0.2715 0.27101 0.270528 0.270055 0.269591 0.269134 0.268686 0.268246 0.267814 0.26739 0.266973
          0.266565 0.266164 0.26577 0.265384 0.265005 0.264633 0.264269 0.263911 0.263561 0.263218 0.262881 0.262552
          0.262229 0.261913 0.261603 0.2613 0.261004 0.260714 0.260431 0.260154 0.259883 0.259619 0.259361 0.259109
          0.258864 0.258624 0.258391 0.258164 0.257943 0.257728 0.257519 0.257316 0.257119 0.256928 0.256744 0.256565
          0.256391 0.256224 0.256063 0.255908 0.255758 0.255615 0.255477 0.255345 0.25522 0.2551 0.254986 0.254877
          0.254775 0.254679 0.254589 0.254504 0.254426 0.254353 0.254287 0.254226 0.254172 0.254124 0.254082 0.254046
          0.254016 0.253992 0.253975 0.253963 0.253959 0.25396 0.253968 0.253982 0.254003 0.254031 0.254065 0.254106
          0.254153 0.254207 0.254269 0.254337 0.254412 0.254494 0.254583 0.25468 0.254784 0.254895 0.255014 0.25514
          0.255275 0.255417 0.255567 0.255725 0.255891 0.256065 0.256248 0.25644 0.25664 0.256849 0.257067 0.257294
          0.257531 0.257777 0.258032 0.258298 0.258573 0.258859 0.259155 0.259462 0.25978 0.260109 0.26045 0.260802
          0.261165 0.261542 0.26193 0.262332 0.262746 0.263174 0.263616 0.264072 0.264542 0.265028 0.265529 0.266045
          0.266578 0.267128 0.267694 0.268279 0.268882 0.269503 0.270133 0.270672 0.269979 0.255405 0.112814
        </DataArray>
        <DataArray type="Float32" Name="relativePerm_w" NumberOfComponents="1" format="ascii">
          0.0392979 0.0539381 0.0667935 0.0783549 0.0888933 0.0985885 0.107571 0.11594 0.123773 0.131136 0.13808 0.144648
          0.150879 0.156804 0.16245 0.167841 0.172999 0.177941 0.182684 0.187242 0.191629 0.195855 0.199932 0.203869
          0.207675 0.211357 0.214923 0.218379 0.221731 0.224984 0.228145 0.231217 0.234204 0.237112 0.239943 0.242701
          0.245389 0.248011 0.250569 0.253065 0.255503 0.257885 0.260212 0.262488 0.264713 0.266889 0.269019 0.271105
          0.273146 0.275146 0.277105 0.279025 0.280907 0.282752 0.284562 0.286337 0.288078 0.289787 0.291464 0.29311
          0.294726 0.296314 0.297873 0.299404 0.300908 0.302387 0.303839 0.305267 0.306671 0.30805 0.309407 0.310741
          0.312053 0.313343 0.314612 0.31586 0.317088 0.318296 0.319485 0.320654 0.321805 0.322938 0.324053 0.32515
          0.32623 0.327292 0.328338 0.329368 0.330382 0.33138 0.332362 0.333329 0.334281 0.335218 0.33614 0.337049
          0.337943 0.338823 0.339689 0.340542 0.341382 0.342208 0.343021 0.343822 0.34461 0.345386 0.346149 0.3469
          0.347639 0.348366 0.349082 0.349786 0.350478 0.351159 0.351829 0.352488 0.353135 0.353772 0.354398 0.355013
          0.355618 0.356212 0.356796 0.35737 0.357933 0.358486 0.35903 0.359563 0.360086 0.360599 0.361103 0.361597
          0.362081 0.362555 0.36302 0.363476 0.363922 0.364359 0.364786 0.365204 0.365613 0.366013 0.366403 0.366784
          0.367156 0.367519 0.367873 0.368218 0.368554 0.368881 0.369199 0.369508 0.369808 0.370099 0.370381 0.370654
          0.370919 0.371174 0.371421 0.371658 0.371887 0.372107 0.372317 0.372519 0.372712 0.372896 0.373071 0.373237
          0.373394 0.373542 0.373681 0.37381 0.373931 0.374042 0.374144 0.374237 0.374321 0.374395 0.37446 0.374515
          0.374561 0.374598 0.374625 0.374642 0.374649 0.374647 0.374635 0.374612 0.37458 0.374538 0.374486 0.374423
          0.37435 0.374266 0.374172 0.374068 0.373952 0.373826 0.373689 0.37354 0.373381 0.37321 0.373028 0.372834
          0.372628 0.37241 0.37218 0.371938 0.371684 0.371417 0.371138 0.370845 0.370539 0.37022 0.369888 0.369542
          0.369182 0.368807 0.368419 0.368015 0.367597 0.367163 0.366714 0.36625 0.365769 0.365272 0.364758 0.364227
          0.363679 0.363113 0.362529 0.361927 0.361305 0.360664 0.360004 0.359323 0.358622 0.357899 0.357155 0.356388
          0.355599 0.354786 0.353949 0.353087 0.3522 0.351288 0.350364 0.349575 0.350589 0.372428 0.646754
        </DataArray>
        <DataArray type="Float32" Name="relativePerm_n" NumberOfComponents="1" format="ascii">
          0.477286 0.422866 0.384455 0.35504 0.331435 0.31189 0.295336 0.28107 0.268604 0.257589 0.247763 0.238926
          0.230926 0.223637 0.216963 0.210822 0.205148 0.199886 0.194988 0.190416 0.186135 0.182117 0.178336 0.17477
          0.171401 0.16821 0.165184 0.16231 0.159574 0.156967 0.15448 0.152103 0.149829 0.147652 0.145564 0.14356
          0.141635 0.139784 0.138002 0.136286 0.134632 0.133036 0.131495 0.130006 0.128567 0.127175 0.125828 0.124523
          0.123258 0.122032 0.120843 0.119688 0.118568 0.117479 0.116421 0.115393 0.114392 0.113419 0.112471 0.111549
          0.11065 0.109775 0.108921 0.108089 0.107278 0.106487 0.105714 0.10496 0.104224 0.103506 0.102804 0.102118
          0.101447 0.100792 0.100152 0.0995257 0.0989133 0.0983142 0.0977282 0.0971547 0.0965935 0.0960442 0.0955064 0.0949799
          0.0944643 0.0939595 0.0934649 0.0929805 0.0925059 0.092041 0.0915854 0.0911389 0.0907014 0.0902725 0.0898521 0.0894401
          0.0890361 0.0886401 0.0882519 0.0878712 0.0874979 0.0871319 0.086773 0.0864211 0.086076 0.0857376 0.0854057 0.0850802
          0.0847611 0.0844482 0.0841413 0.0838404 0.0835453 0.083256 0.0829723 0.0826942 0.0824216 0.0821543 0.0818924 0.0816356
          0.081384 0.0811374 0.0808957 0.080659 0.0804271 0.0801999 0.0799775 0.0797596 0.0795464 0.0793376 0.0791333 0.0789335
          0.0787379 0.0785467 0.0783597 0.0781769 0.0779982 0.0778237 0.0776532 0.0774868 0.0773244 0.0771659 0.0770113 0.0768607
          0.0767138 0.0765709 0.0764317 0.0762962 0.0761646 0.0760366 0.0759124 0.0757918 0.0756749 0.0755616 0.0754519 0.0753458
          0.0752433 0.0751444 0.0750491 0.0749573 0.074869 0.0747842 0.074703 0.0746253 0.0745512 0.0744805 0.0744133 0.0743497
          0.0742895 0.0742329 0.0741798 0.0741302 0.0740841 0.0740415 0.0740025 0.073967 0.0739351 0.0739068 0.0738821 0.0738609
          0.0738434 0.0738295 0.0738193 0.0738128 0.0738099 0.0738108 0.0738155 0.0738239 0.0738362 0.0738523 0.0738723 0.0738962
          0.073924 0.0739559 0.0739918 0.0740318 0.0740759 0.0741241 0.0741767 0.0742334 0.0742946 0.0743601 0.0744301 0.0745046
          0.0745836 0.0746674 0.0747558 0.0748491 0.0749473 0.0750504 0.0751586 0.0752719 0.0753905 0.0755144 0.0756437 0.0757786
          0.0759192 0.0760655 0.0762177 0.076376 0.0765404 0.0767111 0.0768882 0.077072 0.0772625 0.0774599 0.0776644 0.0778762
          0.0780955 0.0783224 0.0785572 0.0788001 0.0790513 0.0793111 0.0795797 0.0798574 0.0801444 0.0804411 0.0807477 0.0810646
          0.0813921 0.0817306 0.0820804 0.082442 0.0828157 0.0832015 0.083594 0.0839301 0.0834979 0.0746605 0.0141886
        </DataArray>
        <DataArray type="Float32" Name="porosity" NumberOfComponents="1" format="ascii">
          0.558 0.558 0.558 0.558 0.558 0.558 0.558 0.558 0.558 0.558 0.558 0.558
          0.558 0.558 0.558 0.558 0.558 0.558 0.558 0.558 0.558 0.558 0.558 0.558
          0.558 0.558 0.558 0.558 0.558 0.558 0.558 0.558 0.558 0.558 0.558 0.558
          0.558 0.558 0.558 0.558 0.558 0.558 0.558 0.558 0.558 0.558 0.558 0.558
          0.558 0.558 0.558 0.558 0.558 0.558 0.558 0.558 0.558 0.558 0.558 0.558
          0.558 0.558 0.558 0.558 0.558 0.558 0.558 0.558 0.558 0.558 0.558 0.558
          0.558 0.558 0.558 0.558 0.558 0.558 0.558 0.558 0.558 0.558 0.558 0.558
          0.558 0.558 0.558 0.558 0.558 0.558 0.558 0.558 0.558 0.558 0.558 0.558
          0.558 0.558 0.558 0.558 0.558 0.558 0.558 0.558 0.558 0.558 0.558 0.558
          0.558 0.558 0.558 0.558 0.558 0.558 0.558 0.558 0.558 0.558 0.558 0.558
          0.558 0.558 0.558 0.558 0.558 0.558 0.558 0.558 0.558 0.558 0.558 0.558
          0.558 0.558 0.558 0.558 0.558 0.558 0.558 0.558 0.558 0.558 0.558 0.558
          0.558 0.558 0.558 0.558 0.558 0.558 0.558 0.558 0.558 0.558 0.558 0.558
          0.558 0.558 0.558 0.558 0.558 0.558 0.558 0.558 0.558 0.558 0.558 0.558
          0.558 0.558 0.558 0.558 0.558 0.558 0.558 0.558 0.558 0.558 0.558 0.558
          0.558 0.558 0.558 0.558 0.558 0.558 0.558 0.558 0.558 0.558 0.558 0.558
          0.558 0.558 0.558 0.558 0.558 0.558 0.558 0.558 0.558 0.558 0.558 0.558
          0.558 0.558 0.558 0.558 0.558 0.558 0.558 0.558 0.558 0.558 0.558 0.558
          0.558 0.558 0.558 0.558 0.558 0.558 0.558 0.558 0.558 0.558 0.558 0.558
          0.558 0.558 0.558 0.558 0.558 0.558 0.558 0.558 0.558 0.558 0.558 0.558
          0.558 0.558 0.558 0.558 0.558 0.558 0.558 0.558 0.558 0.558 0.558
        </DataArray>
        <DataArray type="Float32" Name="filterVelocity_w" NumberOfComponents="1" format="ascii">
          0.000136593 0.00035363 0.00060867 0.000892766 0.00118615 0.00148388 0.00178387 0.00208496 0.00238647 0.00268792 0.00298899 0.00328944
          0.00358911 0.00388787 0.00418563 0.00448234 0.00477795 0.00507243 0.00536575 0.00565792 0.00594894 0.00623879 0.0065275 0.00681508
          0.00710153 0.00738687 0.00767112 0.0079543 0.00823643 0.00851753 0.00879761 0.00907669 0.00935481 0.00963196 0.00990819 0.0101835
          0.0104579 0.0107315 0.0110041 0.011276 0.011547 0.0118172 0.0120867 0.0123553 0.0126233 0.0128904 0.0131569 0.0134227
          0.0136877 0.0139521 0.0142159 0.014479 0.0147414 0.0150033 0.0152645 0.0155251 0.0157852 0.0160447 0.0163036 0.016562
          0.0168199 0.0170772 0.0173341 0.0175904 0.0178462 0.0181016 0.0183565 0.0186109 0.0188649 0.0191184 0.0193715 0.0196242
          0.0198764 0.0201283 0.0203797 0.0206308 0.0208815 0.0211318 0.0213817 0.0216313 0.0218805 0.0221293 0.0223779 0.0226261
          0.0228739 0.0231215 0.0233687 0.0236156 0.0238623 0.0241086 0.0243546 0.0246004 0.0248459 0.0250911 0.025336 0.0255807
          0.0258251 0.0260693 0.0263132 0.0265569 0.0268003 0.0270436 0.0272866 0.0275293 0.0277719 0.0280142 0.0282564 0.0284983
          0.02874 0.0289815 0.0292229 0.029464 0.029705 0.0299458 0.0301864 0.0304268 0.0306671 0.0309072 0.0311472 0.031387
          0.0316266 0.0318661 0.0321054 0.0323446 0.0325836 0.0328225 0.0330613 0.0332999 0.0335384 0.0337768 0.0340151 0.0342532
          0.0344912 0.0347291 0.0349669 0.0352046 0.0354421 0.0356796 0.035917 0.0361542 0.0363914 0.0366284 0.0368654 0.0371022
          0.037339 0.0375757 0.0378123 0.0380488 0.0382852 0.0385216 0.0387578 0.038994 0.0392301 0.0394662 0.0397021 0.039938
          0.0401738 0.0404096 0.0406453 0.0408809 0.0411164 0.0413519 0.0415873 0.0418226 0.0420579 0.0422931 0.0425283 0.0427633
          0.0429984 0.0432333 0.0434682 0.0437031 0.0439379 0.0441726 0.0444072 0.0446418 0.0448764 0.0451109 0.0453453 0.0455796
          0.0458139 0.0460481 0.0462823 0.0465164 0.0467504 0.0469844 0.0472183 0.0474521 0.0476858 0.0479195 0.0481531 0.0483866
          0.04862 0.0488533 0.0490866 0.0493198 0.0495528 0.0497858 0.0500187 0.0502515 0.0504841 0.0507167 0.0509491 0.0511814
          0.0514136 0.0516457 0.0518776 0.0521094 0.052341 0.0525725 0.0528038 0.053035 0.0532659 0.0534967 0.0537273 0.0539577
          0.0541879 0.0544178 0.0546476 0.0548771 0.0551063 0.0553353 0.0555639 0.0557923 0.0560204 0.0562482 0.0564756 0.0567027
          0.0569294 0.0571557 0.0573816 0.0576071 0.0578321 0.0580567 0.0582807 0.0585042 0.0587272 0.0589496 0.0591714 0.0593926
          0.059613 0.0598328 0.0600518 0.06027 0.0604874 0.0607039 0.0609194 0.0611337 0.0613438 0.0615301 0.0616128
        </DataArray>
        <DataArray type="Float32" Name="filterVelocity_n" NumberOfComponents="1" format="ascii">
          0.325112 0.325282 0.325613 0.325928 0.326232 0.32653 0.326823 0.327114 0.327405 0.327695 0.327987 0.32828
          0.328575 0.328874 0.329175 0.32948 0.329788 0.330101 0.330418 0.330739 0.331065 0.331395 0.33173 0.33207
          0.332415 0.332765 0.33312 0.33348 0.333845 0.334216 0.334592 0.334974 0.33536 0.335753 0.336151 0.336554
          0.336963 0.337378 0.337798 0.338224 0.338656 0.339094 0.339538 0.339987 0.340442 0.340903 0.341371 0.341844
          0.342323 0.342809 0.3433 0.343798 0.344302 0.344812 0.345329 0.345852 0.346381 0.346917 0.347459 0.348008
          0.348563 0.349125 0.349694 0.350269 0.350852 0.351441 0.352037 0.352639 0.353249 0.353866 0.35449 0.355122
          0.35576 0.356406 0.357059 0.35772 0.358388 0.359063 0.359747 0.360438 0.361136 0.361843 0.362557 0.36328
          0.364011 0.364749 0.365496 0.366252 0.367015 0.367788 0.368569 0.369358 0.370156 0.370963 0.371779 0.372604
          0.373439 0.374282 0.375135 0.375997 0.376869 0.377751 0.378642 0.379543 0.380455 0.381376 0.382308 0.38325
          0.384202 0.385165 0.386139 0.387124 0.38812 0.389127 0.390145 0.391175 0.392217 0.39327 0.394335 0.395412
          0.396502 0.397604 0.398718 0.399845 0.400985 0.402139 0.403305 0.404485 0.405679 0.406886 0.408108 0.409344
          0.410594 0.411859 0.413139 0.414434 0.415744 0.41707 0.418412 0.41977 0.421144 0.422535 0.423942 0.425367
          0.426809 0.428269 0.429747 0.431243 0.432757 0.43429 0.435843 0.437415 0.439007 0.440619 0.442251 0.443905
          0.445579 0.447275 0.448993 0.450734 0.452497 0.454284 0.456094 0.457928 0.459787 0.46167 0.463579 0.465514
          0.467476 0.469464 0.47148 0.473524 0.475596 0.477697 0.479828 0.48199 0.484182 0.486406 0.488662 0.490951
          0.493273 0.49563 0.498022 0.50045 0.502914 0.505415 0.507955 0.510534 0.513152 0.515812 0.518513 0.521257
          0.524045 0.526877 0.529756 0.532681 0.535655 0.538677 0.54175 0.544875 0.548053 0.551286 0.554574 0.557919
          0.561323 0.564788 0.568314 0.571904 0.575559 0.579281 0.583072 0.586934 0.590869 0.594879 0.598966 0.603133
          0.607381 0.611714 0.616133 0.620642 0.625243 0.629939 0.634733 0.639629 0.644629 0.649737 0.654957 0.660292
          0.665746 0.671324 0.67703 0.682868 0.688842 0.694959 0.701223 0.70764 0.714216 0.720956 0.727867 0.734956
          0.74223 0.749696 0.757363 0.765239 0.773333 0.781654 0.790213 0.79902 0.808094 0.817518 0.822305
        </DataArray>
        <DataArray type="Float32" Name="temperature" NumberOfComponents="1" format="ascii">
          299.75 299.75 299.75 299.75 299.75 299.75 299.75 299.75 299.75 299.75 299.75 299.75
          299.75 299.75 299.75 299.75 299.75 299.75 299.75 299.75 299.75 299.75 299.75 299.75
          299.75 299.75 299.75 299.75 299.75 299.75 299.75 299.75 299.75 299.75 299.75 299.75
          299.75 299.75 299.75 299.75 299.75 299.75 299.75 299.75 299.75 299.75 299.75 299.75
          299.75 299.75 299.75 299.75 299.75 299.75 299.75 299.75 299.75 299.75 299.75 299.75
          299.75 299.75 299.75 299.75 299.75 299.75 299.75 299.75 299.75 299.75 299.75 299.75
          299.75 299.75 299.75 299.75 299.75 299.75 299.75 299.75 299.75 299.75 299.75 299.75
          299.75 299.75 299.75 299.75 299.75 299.75 299.75 299.75 299.75 299.75 299.75 299.75
          299.75 299.75 299.75 299.75 299.75 299.75 299.75 299.75 299.75 299.75 299.75 299.75
          299.75 299.75 299.75 299.75 299.75 299.75 299.75 299.75 299.75 299.75 299.75 299.75
          299.75 299.75 299.75 299.75 299.75 299.75 299.75 299.75 299.75 299.75 299.75 299.75
          299.75 299.75 299.75 299.75 299.75 299.75 299.75 299.75 299.75 299.75 299.75 299.75
          299.75 299.75 299.75 299.75 299.75 299.75 299.75 299.75 299.75 299.75 299.75 299.75
          299.75 299.75 299.75 299.75 299.75 299.75 299.75 299.75 299.75 299.75 299.75 299.75
          299.75 299.75 299.75 299.75 299.75 299.75 299.75 299.75 299.75 299.75 299.75 299.75
          299.75 299.75 299.75 299.75 299.75 299.75 299.75 299.75 299.75 299.75 299.75 299.75
          299.75 299.75 299.75 299.75 299.75 299.75 299.75 299.75 299.75 299.75 299.75 299.75
          299.75 299.75 299.75 299.75 299.75 299.75 299.75 299.75 299.75 299.75 299.75 299.75
          299.75 299.75 299.75 299.75 299.75 299.75 299.75 299.75 299.75 299.75 299.75 299.75
          299.75 299.75 299.75 299.75 299.75 299.75 299.75 299.75 299.75 299.75 299.75 299.75
          299.75 299.75 299.75 299.75 299.75 299.75 299.75 299.75 299.75 299.75 299.75
        </DataArray>
      </PointData>
      <Points>
        <DataArray type="Float32" Name="Coordinates" NumberOfComponents="3" format="ascii">
          0 0 0 0.4 0 0 0.8 0 0 1.2 0 0
          1.6 0 0 2 0 0 2.4 0 0 2.8 0 0
          3.2 0 0 3.6 0 0 4 0 0 4.4 0 0
          4.8 0 0 5.2 0 0 5.6 0 0 6 0 0
          6.4 0 0 6.8 0 0 7.2 0 0 7.6 0 0
          8 0 0 8.4 0 0 8.8 0 0 9.2 0 0
          9.6 0 0 10 0 0 10.4 0 0 10.8 0 0
          11.2 0 0 11.6 0 0 12 0 0 12.4 0 0
          12.8 0 0 13.2 0 0 13.6 0 0 14 0 0
          14.4 0 0 14.8 0 0 15.2 0 0 15.6 0 0
          16 0 0 16.4 0 0 16.8 0 0 17.2 0 0
          17.6 0 0 18 0 0 18.4 0 0 18.8 0 0
          19.2 0 0 19.6 0 0 20 0 0 20.4 0 0
          20.8 0 0 21.2 0 0 21.6 0 0 22 0 0
          22.4 0 0 22.8 0 0 23.2 0 0 23.6 0 0
          24 0 0 24.4 0 0 24.8 0 0 25.2 0 0
          25.6 0 0 26 0 0 26.4 0 0 26.8 0 0
          27.2 0 0 27.6 0 0 28 0 0 28.4 0 0
          28.8 0 0 29.2 0 0 29.6 0 0 30 0 0
          30.4 0 0 30.8 0 0 31.2 0 0 31.6 0 0
          32 0 0 32.4 0 0 32.8 0 0 33.2 0 0
          33.6 0 0 34 0 0 34.4 0 0 34.8 0 0
          35.2 0 0 35.6 0 0 36 0 0 36.4 0 0
          36.8 0 0 37.2 0 0 37.6 0 0 38 0 0
          38.4 0 0 38.8 0 0 39.2 0 0 39.6 0 0
          40 0 0 40.4 0 0 40.8 0 0 41.2 0 0
          41.6 0 0 42 0 0 42.4 0 0 42.8 0 0
          43.2 0 0 43.6 0 0 44 0 0 44.4 0 0
          44.8 0 0 45.2 0 0 45.6 0 0 46 0 0
          46.4 0 0 46.8 0 0 47.2 0 0 47.6 0 0
          48 0 0 48.4 0 0 48.8 0 0 49.2 0 0
          49.6 0 0 50 0 0 50.4 0 0 50.8 0 0
          51.2 0 0 51.6 0 0 52 0 0 52.4 0 0
          52.8 0 0 53.2 0 0 53.6 0 0 54 0 0
          54.4 0 0 54.8 0 0 55.2 0 0 55.6 0 0
          56 0 0 56.4 0 0 56.8 0 0 57.2 0 0
          57.6 0 0 58 0 0 58.4 0 0 58.8 0 0
          59.2 0 0 59.6 0 0 60 0 0 60.4 0 0
          60.8 0 0 61.2 0 0 61.6 0 0 62 0 0
          62.4 0 0 62.8 0 0 63.2 0 0 63.6 0 0
          64 0 0 64.4 0 0 64.8 0 0 65.2 0 0
          65.6 0 0 66 0 0 66.4 0 0 66.8 0 0
          67.2 0 0 67.6 0 0 68 0 0 68.4 0 0