<?xml version="1.0"?>
<VTKFile type="UnstructuredGrid" version="0.1" byte_order="LittleEndian">
  <UnstructuredGrid>
    <Piece NumberOfCells="1000" NumberOfPoints="1111">
      <PointData Scalars="pressure_o">
        <DataArray type="Float32" Name="pressure_o" NumberOfComponents="1" format="ascii">
          3e+07 2.75692e+07 3e+07 2.7554e+07 2.54326e+07 2.542e+07 2.37013e+07 2.36882e+07 2.24041e+07 2.23911e+07 2.15027e+07 2.14898e+07
          2.09168e+07 2.09039e+07 2.05552e+07 2.05422e+07 2.03409e+07 2.0328e+07 2.02187e+07 2.02057e+07 2.01545e+07 2.01415e+07 2.01244e+07 2.01114e+07
          2.01178e+07 2.01049e+07 2.01167e+07 2.01037e+07 2.01165e+07 2.01035e+07 2.01165e+07 2.01035e+07 2.01165e+07 2.01035e+07 2.01165e+07 2.01035e+07
          2.01165e+07 2.01035e+07 2.01165e+07 2.01035e+07 2.01165e+07 2.01035e+07 2.01165e+07 2.01035e+07 2.01165e+07 2.01035e+07 2.01165e+07 2.01035e+07
          2.01165e+07 2.01035e+07 2.01165e+07 2.01035e+07 2.01165e+07 2.01035e+07 2.01165e+07 2.01035e+07 2.01165e+07 2.01035e+07 2.01165e+07 2.01035e+07
          2.01165e+07 2.01035e+07 2.01165e+07 2.01035e+07 2.01165e+07 2.01035e+07 2.01165e+07 2.01035e+07 2.01165e+07 2.01035e+07 2.01165e+07 2.01035e+07
          2.01165e+07 2.01035e+07 2.01165e+07 2.01035e+07 2.01165e+07 2.01035e+07 2.01165e+07 2.01035e+07 2.01165e+07 2.01035e+07 2.01165e+07 2.01035e+07
          2.01165e+07 2.01035e+07 2.01165e+07 2.01035e+07 2.01164e+07 2.01035e+07 2.01161e+07 2.01032e+07 2.01141e+07 2.01011e+07 2.0103e+07 2.009e+07
          2.00403e+07 2.00273e+07 1.93936e+07 1.93832e+07 1.34703e+07 1.34642e+07 1.93936e+07 1.93832e+07 2.00403e+07 2.00273e+07 2.0103e+07 2.009e+07
          2.01141e+07 2.01011e+07 2.01161e+07 2.01032e+07 2.01164e+07 2.01035e+07 2.01165e+07 2.01035e+07 2.01165e+07 2.01035e+07 2.01165e+07 2.01035e+07
          2.01165e+07 2.01035e+07 2.01165e+07 2.01035e+07 2.01165e+07 2.01035e+07 2.01165e+07 2.01035e+07 2.01165e+07 2.01035e+07 2.01165e+07 2.01035e+07
          2.01165e+07 2.01035e+07 2.01165e+07 2.01035e+07 2.01165e+07 2.01035e+07 2.01165e+07 2.01035e+07 2.01165e+07 2.01035e+07 2.01165e+07 2.01035e+07
          2.01165e+07 2.01035e+07 2.01165e+07 2.01035e+07 2.01165e+07 2.01035e+07 2.01165e+07 2.01035e+07 2.01165e+07 2.01035e+07 2.01165e+07 2.01035e+07
          2.01165e+07 2.01035e+07 2.01165e+07 2.01035e+07 2.01165e+07 2.01035e+07 2.01165e+07 2.01035e+07 2.01165e+07 2.01035e+07 2.01165e+07 2.01035e+07
          2.01165e+07 2.01035e+07 2.01165e+07 2.01035e+07 2.01165e+07 2.01035e+07 2.01167e+07 2.01037e+07 2.01178e+07 2.01049e+07 2.01244e+07 2.01114e+07
          2.01545e+07 2.01415e+07 2.02187e+07 2.02057e+07 2.03409e+07 2.0328e+07 2.05552e+07 2.05422e+07 2.09168e+07 2.09039e+07 2.15027e+07 2.14898e+07
          2.24041e+07 2.23911e+07 2.37013e+07 2.36882e+07 2.54326e+07 2.542e+07 2.75692e+07 2.7554e+07 3e+07 3e+07 3e+07 2.75387e+07
          2.54074e+07 2.36752e+07 2.23782e+07 2.14768e+07 2.08909e+07 2.05292e+07 2.0315e+07 2.01927e+07 2.01285e+07 2.00984e+07 2.00919e+07 2.00907e+07
          2.00906e+07 2.00906e+07 2.00906e+07 2.00906e+07 2.00906e+07 2.00906e+07 2.00906e+07 2.00906e+07 2.00906e+07 2.00906e+07 2.00906e+07 2.00906e+07
          2.00906e+07 2.00906e+07 2.00906e+07 2.00906e+07 2.00906e+07 2.00906e+07 2.00906e+07 2.00906e+07 2.00906e+07 2.00906e+07 2.00906e+07 2.00906e+07
          2.00906e+07 2.00906e+07 2.00906e+07 2.00906e+07 2.00906e+07 2.00905e+07 2.00905e+07 2.00902e+07 2.00882e+07 2.00771e+07 2.00149e+07 1.93746e+07
          1.34519e+07 1.93746e+07 2.00149e+07 2.00771e+07 2.00882e+07 2.00902e+07 2.00905e+07 2.00905e+07 2.00906e+07 2.00906e+07 2.00906e+07 2.00906e+07
          2.00906e+07 2.00906e+07 2.00906e+07 2.00906e+07 2.00906e+07 2.00906e+07 2.00906e+07 2.00906e+07 2.00906e+07 2.00906e+07 2.00906e+07 2.00906e+07
          2.00906e+07 2.00906e+07 2.00906e+07 2.00906e+07 2.00906e+07 2.00906e+07 2.00906e+07 2.00906e+07 2.00906e+07 2.00906e+07 2.00906e+07 2.00906e+07
          2.00906e+07 2.00907e+07 2.00919e+07 2.00984e+07 2.01285e+07 2.01927e+07 2.0315e+07 2.05292e+07 2.08909e+07 2.14768e+07 2.23782e+07 2.36752e+07
          2.54074e+07 2.75387e+07 3e+07 3e+07 2.75233e+07 2.53949e+07 2.36621e+07 2.23652e+07 2.14638e+07 2.08779e+07 2.05162e+07 2.0302e+07
          2.01797e+07 2.01156e+07 2.00854e+07 2.00789e+07 2.00778e+07 2.00776e+07 2.00776e+07 2.00776e+07 2.00776e+07 2.00776e+07 2.00776e+07 2.00776e+07
          2.00776e+07 2.00776e+07 2.00776e+07 2.00776e+07 2.00776e+07 2.00776e+07 2.00776e+07 2.00776e+07 2.00776e+07 2.00776e+07 2.00776e+07 2.00776e+07
          2.00776e+07 2.00776e+07 2.00776e+07 2.00776e+07 2.00776e+07 2.00776e+07 2.00776e+07 2.00776e+07 2.00776e+07 2.00776e+07 2.00776e+07 2.00775e+07
          2.00772e+07 2.00752e+07 2.00641e+07 2.00031e+07 1.93672e+07 1.34329e+07 1.93672e+07 2.00031e+07 2.00641e+07 2.00752e+07 2.00772e+07 2.00775e+07
          2.00776e+07 2.00776e+07 2.00776e+07 2.00776e+07 2.00776e+07 2.00776e+07 2.00776e+07 2.00776e+07 2.00776e+07 2.00776e+07 2.00776e+07 2.00776e+07
          2.00776e+07 2.00776e+07 2.00776e+07 2.00776e+07 2.00776e+07 2.00776e+07 2.00776e+07 2.00776e+07 2.00776e+07 2.00776e+07 2.00776e+07 2.00776e+07
          2.00776e+07 2.00776e+07 2.00776e+07 2.00776e+07 2.00776e+07 2.00776e+07 2.00778e+07 2.00789e+07 2.00854e+07 2.01156e+07 2.01797e+07 2.0302e+07
          2.05162e+07 2.08779e+07 2.14638e+07 2.23652e+07 2.36621e+07 2.53949e+07 2.75233e+07 3e+07 3e+07 2.75079e+07 2.53824e+07 2.36491e+07
          2.23523e+07 2.14508e+07 2.08649e+07 2.05033e+07 2.02891e+07 2.01668e+07 2.01026e+07 2.00723e+07 2.00659e+07 2.00648e+07 2.00646e+07 2.00646e+07
          2.00646e+07 2.00646e+07 2.00646e+07 2.00646e+07 2.00646e+07 2.00646e+07 2.00646e+07 2.00646e+07 2.00646e+07 2.00646e+07 2.00646e+07 2.00646e+07
          2.00646e+07 2.00646e+07 2.00646e+07 2.00646e+07 2.00646e+07 2.00646e+07 2.00646e+07 2.00646e+07 2.00646e+07 2.00646e+07 2.00646e+07 2.00646e+07
          2.00646e+07 2.00646e+07 2.00646e+07 2.00646e+07 2.00646e+07 2.00643e+07 2.00623e+07 2.00511e+07 1.9992e+07 1.9361e+07 1.3407e+07 1.9361e+07
          1.9992e+07 2.00511e+07 2.00623e+07 2.00643e+07 2.00646e+07 2.00646e+07 2.00646e+07 2.00646e+07 2.00646e+07 2.00646e+07 2.00646e+07 2.00646e+07
          2.00646e+07 2.00646e+07 2.00646e+07 2.00646e+07 2.00646e+07 2.00646e+07 2.00646e+07 2.00646e+07 2.00646e+07 2.00646e+07 2.00646e+07 2.00646e+07
          2.00646e+07 2.00646e+07 2.00646e+07 2.00646e+07 2.00646e+07 2.00646e+07 2.00646e+07 2.00646e+07 2.00646e+07 2.00646e+07 2.00646e+07 2.00648e+07
          2.00659e+07 2.00723e+07 2.01026e+07 2.01668e+07 2.02891e+07 2.05033e+07 2.08649e+07 2.14508e+07 2.23523e+07 2.36491e+07 2.53824e+07 2.75079e+07
          3e+07 2.99357e+07 2.75034e+07 2.5368e+07 2.36363e+07 2.23392e+07 2.14379e+07 2.0852e+07 2.04903e+07 2.02761e+07 2.01538e+07 2.00896e+07
          2.00592e+07 2.0053e+07 2.00518e+07 2.00517e+07 2.00516e+07 2.00516e+07 2.00516e+07 2.00516e+07 2.00516e+07 2.00516e+07 2.00516e+07 2.00516e+07
          2.00516e+07 2.00516e+07 2.00516e+07 2.00516e+07 2.00516e+07 2.00516e+07 2.00516e+07 2.00516e+07 2.00516e+07 2.00516e+07 2.00516e+07 2.00516e+07
          2.00516e+07 2.00516e+07 2.00516e+07 2.00516e+07 2.00516e+07 2.00516e+07 2.00516e+07 2.00516e+07 2.00516e+07 2.00516e+07 2.00513e+07 2.00494e+07
          2.00382e+07 1.99804e+07 1.93562e+07 1.33739e+07 1.93562e+07 1.99804e+07 2.00382e+07 2.00494e+07 2.00513e+07 2.00516e+07 2.00516e+07 2.00516e+07
          2.00516e+07 2.00516e+07 2.00516e+07 2.00516e+07 2.00516e+07 2.00516e+07 2.00516e+07 2.00516e+07 2.00516e+07 2.00516e+07 2.00516e+07 2.00516e+07
          2.00516e+07 2.00516e+07 2.00516e+07 2.00516e+07 2.00516e+07 2.00516e+07 2.00516e+07 2.00516e+07 2.00516e+07 2.00516e+07 2.00516e+07 2.00516e+07
          2.00516e+07 2.00516e+07 2.00516e+07 2.00517e+07 2.00518e+07 2.0053e+07 2.00592e+07 2.00896e+07 2.01538e+07 2.02761e+07 2.04903e+07 2.0852e+07
          2.14379e+07 2.23392e+07 2.36363e+07 2.5368e+07 2.75034e+07 2.99357e+07 2.9889e+07 2.74959e+07 2.53542e+07 2.36235e+07 2.23262e+07 2.14249e+07
          2.0839e+07 2.04773e+07 2.02631e+07 2.01408e+07 2.00767e+07 2.00461e+07 2.004e+07 2.00388e+07 2.00387e+07 2.00387e+07 2.00387e+07 2.00387e+07
          2.00387e+07 2.00387e+07 2.00387e+07 2.00387e+07 2.00387e+07 2.00387e+07 2.00387e+07 2.00387e+07 2.00387e+07 2.00387e+07 2.00387e+07 2.00387e+07
          2.00387e+07 2.00387e+07 2.00387e+07 2.00387e+07 2.00387e+07 2.00387e+07 2.00387e+07 2.00387e+07 2.00387e+07 2.00387e+07 2.00387e+07 2.00387e+07
          2.00387e+07 2.00387e+07 2.00386e+07 2.00383e+07 2.00365e+07 2.00254e+07 1.99682e+07 1.93528e+07 1.33333e+07 1.93528e+07 1.99682e+07 2.00254e+07
          2.00365e+07 2.00383e+07 2.00386e+07 2.00387e+07 2.00387e+07 2.00387e+07 2.00387e+07 2.00387e+07 2.00387e+07 2.00387e+07 2.00387e+07 2.00387e+07
          2.00387e+07 2.00387e+07 2.00387e+07 2.00387e+07 2.00387e+07 2.00387e+07 2.00387e+07 2.00387e+07 2.00387e+07 2.00387e+07 2.00387e+07 2.00387e+07
          2.00387e+07 2.00387e+07 2.00387e+07 2.00387e+07 2.00387e+07 2.00387e+07 2.00387e+07 2.00387e+07 2.00387e+07 2.00388e+07 2.004e+07 2.00461e+07
          2.00767e+07 2.01408e+07 2.02631e+07 2.04773e+07 2.0839e+07 2.14249e+07 2.23262e+07 2.36235e+07 2.53542e+07 2.74959e+07 2.9889e+07 2.98503e+07
          2.7487e+07 2.53406e+07 2.36106e+07 2.23133e+07 2.14119e+07 2.0826e+07 2.04644e+07 2.02502e+07 2.01278e+07 2.00637e+07 2.0033e+07 2.0027e+07
          2.00258e+07 2.00257e+07 2.00257e+07 2.00257e+07 2.00257e+07 2.00257e+07 2.00257e+07 2.00257e+07 2.00257e+07 2.00257e+07 2.00257e+07 2.00257e+07
          2.00257e+07 2.00257e+07 2.00257e+07 2.00257e+07 2.00257e+07 2.00257e+07 2.00257e+07 2.00257e+07 2.00257e+07 2.00257e+07 2.00257e+07 2.00257e+07
          2.00257e+07 2.00257e+07 2.00257e+07 2.00257e+07 2.00257e+07 2.00257e+07 2.00257e+07 2.00257e+07 2.00254e+07 2.00236e+07 2.00126e+07 1.9957e+07
          1.93424e+07 1.33333e+07 1.93424e+07 1.9957e+07 2.00126e+07 2.00236e+07 2.00254e+07 2.00257e+07 2.00257e+07 2.00257e+07 2.00257e+07 2.00257e+07
          2.00257e+07 2.00257e+07 2.00257e+07 2.00257e+07 2.00257e+07 2.00257e+07 2.00257e+07 2.00257e+07 2.00257e+07 2.00257e+07 2.00257e+07 2.00257e+07
          2.00257e+07 2.00257e+07 2.00257e+07 2.00257e+07 2.00257e+07 2.00257e+07 2.00257e+07 2.00257e+07 2.00257e+07 2.00257e+07 2.00257e+07 2.00257e+07
          2.00257e+07 2.00257e+07 2.00258e+07 2.0027e+07 2.0033e+07 2.00637e+07 2.01278e+07 2.02502e+07 2.04644e+07 2.0826e+07 2.14119e+07 2.23133e+07
          2.36106e+07 2.53406e+07 2.7487e+07 2.98503e+07 2.9819e+07 2.74768e+07 2.53271e+07 2.35977e+07 2.23003e+07 2.1399e+07 2.0813e+07 2.04514e+07
          2.02372e+07 2.01149e+07 2.00508e+07 2.00198e+07 2.0014e+07 2.00129e+07 2.00127e+07 2.00127e+07 2.00127e+07 2.00127e+07 2.00127e+07 2.00127e+07
          2.00127e+07 2.00127e+07 2.00127e+07 2.00127e+07 2.00127e+07 2.00127e+07 2.00127e+07 2.00127e+07 2.00127e+07 2.00127e+07 2.00127e+07 2.00127e+07
          2.00127e+07 2.00127e+07 2.00127e+07 2.00127e+07 2.00127e+07 2.00127e+07 2.00127e+07 2.00127e+07 2.00127e+07 2.00127e+07 2.00127e+07 2.00127e+07
          2.00127e+07 2.00124e+07 2.00106e+07 1.99998e+07 1.99455e+07 1.93319e+07 1.33333e+07 1.93319e+07 1.99455e+07 1.99998e+07 2.00106e+07 2.00124e+07
          2.00127e+07 2.00127e+07 2.00127e+07 2.00127e+07 2.00127e+07 2.00127e+07 2.00127e+07 2.00127e+07 2.00127e+07 2.00127e+07 2.00127e+07 2.00127e+07
          2.00127e+07 2.00127e+07 2.00127e+07 2.00127e+07 2.00127e+07 2.00127e+07 2.00127e+07 2.00127e+07 2.00127e+07 2.00127e+07 2.00127e+07 2.00127e+07
          2.00127e+07 2.00127e+07 2.00127e+07 2.00127e+07 2.00127e+07 2.00127e+07 2.00127e+07 2.00129e+07 2.0014e+07 2.00198e+07 2.00508e+07 2.01149e+07
          2.02372e+07 2.04514e+07 2.0813e+07 2.1399e+07 2.23003e+07 2.35977e+07 2.53271e+07 2.74768e+07 2.9819e+07 2.97951e+07 2.74655e+07 2.53139e+07
          2.35847e+07 2.22873e+07 2.1386e+07 2.08001e+07 2.04384e+07 2.02242e+07 2.01019e+07 2.00379e+07 2.00066e+07 2.0001e+07 1.99999e+07 1.99998e+07
          1.99998e+07 1.99998e+07 1.99998e+07 1.99998e+07 1.99998e+07 1.99998e+07 1.99998e+07 1.99998e+07 1.99998e+07 1.99998e+07 1.99998e+07 1.99998e+07
          1.99998e+07 1.99998e+07 1.99998e+07 1.99998e+07 1.99998e+07 1.99998e+07 1.99998e+07 1.99998e+07 1.99998e+07 1.99998e+07 1.99998e+07 1.99998e+07
          1.99998e+07 1.99998e+07 1.99998e+07 1.99998e+07 1.99998e+07 1.99997e+07 1.99995e+07 1.99977e+07 1.99872e+07 1.99336e+07 1.93214e+07 1.33333e+07
          1.93214e+07 1.99336e+07 1.99872e+07 1.99977e+07 1.99995e+07 1.99997e+07 1.99998e+07 1.99998e+07 1.99998e+07 1.99998e+07 1.99998e+07 1.99998e+07
          1.99998e+07 1.99998e+07 1.99998e+07 1.99998e+07 1.99998e+07 1.99998e+07 1.99998e+07 1.99998e+07 1.99998e+07 1.99998e+07 1.99998e+07 1.99998e+07
          1.99998e+07 1.99998e+07 1.99998e+07 1.99998e+07 1.99998e+07 1.99998e+07 1.99998e+07 1.99998e+07 1.99998e+07 1.99998e+07 1.99998e+07 1.99998e+07
          1.99999e+07 2.0001e+07 2.00066e+07 2.00379e+07 2.01019e+07 2.02242e+07 2.04384e+07 2.08001e+07 2.1386e+07 2.22873e+07 2.35847e+07 2.53139e+07
          2.74655e+07 2.97951e+07 2.97784e+07 2.74531e+07 2.53008e+07 2.35718e+07 2.22743e+07 2.1373e+07 2.07871e+07 2.04254e+07 2.02112e+07 2.00889e+07
          2.00249e+07 1.99934e+07 1.99881e+07 1.99869e+07 1.99868e+07 1.99868e+07 1.99868e+07 1.99868e+07 1.99868e+07 1.99868e+07 1.99868e+07 1.99868e+07
          1.99868e+07 1.99868e+07 1.99868e+07 1.99868e+07 1.99868e+07 1.99868e+07 1.99868e+07 1.99868e+07 1.99868e+07 1.99868e+07 1.99868e+07 1.99868e+07
          1.99868e+07 1.99868e+07 1.99868e+07 1.99868e+07 1.99868e+07 1.99868e+07 1.99868e+07 1.99868e+07 1.99868e+07 1.99868e+07 1.99868e+07 1.99865e+07
          1.99848e+07 1.99745e+07 1.99213e+07 1.93109e+07 1.33333e+07 1.93109e+07 1.99213e+07 1.99745e+07 1.99848e+07 1.99865e+07 1.99868e+07 1.99868e+07
          1.99868e+07 1.99868e+07 1.99868e+07 1.99868e+07 1.99868e+07 1.99868e+07 1.99868e+07 1.99868e+07 1.99868e+07 1.99868e+07 1.99868e+07 1.99868e+07
          1.99868e+07 1.99868e+07 1.99868e+07 1.99868e+07 1.99868e+07 1.99868e+07 1.99868e+07 1.99868e+07 1.99868e+07 1.99868e+07 1.99868e+07 1.99868e+07
          1.99868e+07 1.99868e+07 1.99868e+07 1.99868e+07 1.99868e+07 1.99869e+07 1.99881e+07 1.99934e+07 2.00249e+07 2.00889e+07 2.02112e+07 2.04254e+07
          2.07871e+07 2.1373e+07 2.22743e+07 2.35718e+07 2.53008e+07 2.74531e+07 2.97784e+07
        </DataArray>
        <DataArray type="Float32" Name="pressure_w" NumberOfComponents="1" format="ascii">
          3e+07 2.75692e+07 3e+07 2.7554e+07 2.54326e+07 2.542e+07 2.37013e+07 2.36882e+07 2.24041e+07 2.23911e+07 2.15027e+07 2.14898e+07
          2.09168e+07 2.09039e+07 2.05552e+07 2.05422e+07 2.03409e+07 2.0328e+07 2.02187e+07 2.02057e+07 2.01545e+07 2.01415e+07 2.01244e+07 2.01114e+07
          2.01178e+07 2.01049e+07 2.01167e+07 2.01037e+07 2.01165e+07 2.01035e+07 2.01165e+07 2.01035e+07 2.01165e+07 2.01035e+07 2.01165e+07 2.01035e+07
          2.01165e+07 2.01035e+07 2.01165e+07 2.01035e+07 2.01165e+07 2.01035e+07 2.01165e+07 2.01035e+07 2.01165e+07 2.01035e+07 2.01165e+07 2.01035e+07
          2.01165e+07 2.01035e+07 2.01165e+07 2.01035e+07 2.01165e+07 2.01035e+07 2.01165e+07 2.01035e+07 2.01165e+07 2.01035e+07 2.01165e+07 2.01035e+07
          2.01165e+07 2.01035e+07 2.01165e+07 2.01035e+07 2.01165e+07 2.01035e+07 2.01165e+07 2.01035e+07 2.01165e+07 2.01035e+07 2.01165e+07 2.01035e+07
          2.01165e+07 2.01035e+07 2.01165e+07 2.01035e+07 2.01165e+07 2.01035e+07 2.01165e+07 2.01035e+07 2.01165e+07 2.01035e+07 2.01165e+07 2.01035e+07
          2.01165e+07 2.01035e+07 2.01165e+07 2.01035e+07 2.01164e+07 2.01035e+07 2.01161e+07 2.01032e+07 2.01141e+07 2.01011e+07 2.0103e+07 2.009e+07
          2.00403e+07 2.00273e+07 1.93936e+07 1.93832e+07 1.34703e+07 1.34642e+07 1.93936e+07 1.93832e+07 2.00403e+07 2.00273e+07 2.0103e+07 2.009e+07
          2.01141e+07 2.01011e+07 2.01161e+07 2.01032e+07 2.01164e+07 2.01035e+07 2.01165e+07 2.01035e+07 2.01165e+07 2.01035e+07 2.01165e+07 2.01035e+07
          2.01165e+07 2.01035e+07 2.01165e+07 2.01035e+07 2.01165e+07 2.01035e+07 2.01165e+07 2.01035e+07 2.01165e+07 2.01035e+07 2.01165e+07 2.01035e+07
          2.01165e+07 2.01035e+07 2.01165e+07 2.01035e+07 2.01165e+07 2.01035e+07 2.01165e+07 2.01035e+07 2.01165e+07 2.01035e+07 2.01165e+07 2.01035e+07
          2.01165e+07 2.01035e+07 2.01165e+07 2.01035e+07 2.01165e+07 2.01035e+07 2.01165e+07 2.01035e+07 2.01165e+07 2.01035e+07 2.01165e+07 2.01035e+07
          2.01165e+07 2.01035e+07 2.01165e+07 2.01035e+07 2.01165e+07 2.01035e+07 2.01165e+07 2.01035e+07 2.01165e+07 2.01035e+07 2.01165e+07 2.01035e+07
          2.01165e+07 2.01035e+07 2.01165e+07 2.01035e+07 2.01165e+07 2.01035e+07 2.01167e+07 2.01037e+07 2.01178e+07 2.01049e+07 2.01244e+07 2.01114e+07
          2.01545e+07 2.01415e+07 2.02187e+07 2.02057e+07 2.03409e+07 2.0328e+07 2.05552e+07 2.05422e+07 2.09168e+07 2.09039e+07 2.15027e+07 2.14898e+07
          2.24041e+07 2.23911e+07 2.37013e+07 2.36882e+07 2.54326e+07 2.542e+07 2.75692e+07 2.7554e+07 3e+07 3e+07 3e+07 2.75387e+07
          2.54074e+07 2.36752e+07 2.23782e+07 2.14768e+07 2.08909e+07 2.05292e+07 2.0315e+07 2.01927e+07 2.01285e+07 2.00984e+07 2.00919e+07 2.00907e+07
          2.00906e+07 2.00906e+07 2.00906e+07 2.00906e+07 2.00906e+07 2.00906e+07 2.00906e+07 2.00906e+07 2.00906e+07 2.00906e+07 2.00906e+07 2.00906e+07
          2.00906e+07 2.00906e+07 2.00906e+07 2.00906e+07 2.00906e+07 2.00906e+07 2.00906e+07 2.00906e+07 2.00906e+07 2.00906e+07 2.00906e+07 2.00906e+07
          2.00906e+07 2.00906e+07 2.00906e+07 2.00906e+07 2.00906e+07 2.00905e+07 2.00905e+07 2.00902e+07 2.00882e+07 2.00771e+07 2.00149e+07 1.93746e+07
          1.34519e+07 1.93746e+07 2.00149e+07 2.00771e+07 2.00882e+07 2.00902e+07 2.00905e+07 2.00905e+07 2.00906e+07 2.00906e+07 2.00906e+07 2.00906e+07
          2.00906e+07 2.00906e+07 2.00906e+07 2.00906e+07 2.00906e+07 2.00906e+07 2.00906e+07 2.00906e+07 2.00906e+07 2.00906e+07 2.00906e+07 2.00906e+07
          2.00906e+07 2.00906e+07 2.00906e+07 2.00906e+07 2.00906e+07 2.00906e+07 2.00906e+07 2.00906e+07 2.00906e+07 2.00906e+07 2.00906e+07 2.00906e+07
          2.00906e+07 2.00907e+07 2.00919e+07 2.00984e+07 2.01285e+07 2.01927e+07 2.0315e+07 2.05292e+07 2.08909e+07 2.14768e+07 2.23782e+07 2.36752e+07
          2.54074e+07 2.75387e+07 3e+07 3e+07 2.75233e+07 2.53949e+07 2.36621e+07 2.23652e+07 2.14638e+07 2.08779e+07 2.05162e+07 2.0302e+07
          2.01797e+07 2.01156e+07 2.00854e+07 2.00789e+07 2.00778e+07 2.00776e+07 2.00776e+07 2.00776e+07 2.00776e+07 2.00776e+07 2.00776e+07 2.00776e+07
          2.00776e+07 2.00776e+07 2.00776e+07 2.00776e+07 2.00776e+07 2.00776e+07 2.00776e+07 2.00776e+07 2.00776e+07 2.00776e+07 2.00776e+07 2.00776e+07
          2.00776e+07 2.00776e+07 2.00776e+07 2.00776e+07 2.00776e+07 2.00776e+07 2.00776e+07 2.00776e+07 2.00776e+07 2.00776e+07 2.00776e+07 2.00775e+07
          2.00772e+07 2.00752e+07 2.00641e+07 2.00031e+07 1.93672e+07 1.34329e+07 1.93672e+07 2.00031e+07 2.00641e+07 2.00752e+07 2.00772e+07 2.00775e+07
          2.00776e+07 2.00776e+07 2.00776e+07 2.00776e+07 2.00776e+07 2.00776e+07 2.00776e+07 2.00776e+07 2.00776e+07 2.00776e+07 2.00776e+07 2.00776e+07
          2.00776e+07 2.00776e+07 2.00776e+07 2.00776e+07 2.00776e+07 2.00776e+07 2.00776e+07 2.00776e+07 2.00776e+07 2.00776e+07 2.00776e+07 2.00776e+07
          2.00776e+07 2.00776e+07 2.00776e+07 2.00776e+07 2.00776e+07 2.00776e+07 2.00778e+07 2.00789e+07 2.00854e+07 2.01156e+07 2.01797e+07 2.0302e+07
          2.05162e+07 2.08779e+07 2.14638e+07 2.23652e+07 2.36621e+07 2.53949e+07 2.75233e+07 3e+07 3e+07 2.75079e+07 2.53824e+07 2.36491e+07
          2.23523e+07 2.14508e+07 2.08649e+07 2.05033e+07 2.02891e+07 2.01668e+07 2.01026e+07 2.00723e+07 2.00659e+07 2.00648e+07 2.00646e+07 2.00646e+07
          2.00646e+07 2.00646e+07 2.00646e+07 2.00646e+07 2.00646e+07 2.00646e+07 2.00646e+07 2.00646e+07 2.00646e+07 2.00646e+07 2.00646e+07 2.00646e+07
          2.00646e+07 2.00646e+07 2.00646e+07 2.00646e+07 2.00646e+07 2.00646e+07 2.00646e+07 2.00646e+07 2.00646e+07 2.00646e+07 2.00646e+07 2.00646e+07
          2.00646e+07 2.00646e+07 2.00646e+07 2.00646e+07 2.00646e+07 2.00643e+07 2.00623e+07 2.00511e+07 1.9992e+07 1.9361e+07 1.3407e+07 1.9361e+07
          1.9992e+07 2.00511e+07 2.00623e+07 2.00643e+07 2.00646e+07 2.00646e+07 2.00646e+07 2.00646e+07 2.00646e+07 2.00646e+07 2.00646e+07 2.00646e+07
          2.00646e+07 2.00646e+07 2.00646e+07 2.00646e+07 2.00646e+07 2.00646e+07 2.00646e+07 2.00646e+07 2.00646e+07 2.00646e+07 2.00646e+07 2.00646e+07
          2.00646e+07 2.00646e+07 2.00646e+07 2.00646e+07 2.00646e+07 2.00646e+07 2.00646e+07 2.00646e+07 2.00646e+07 2.00646e+07 2.00646e+07 2.00648e+07
          2.00659e+07 2.00723e+07 2.01026e+07 2.01668e+07 2.02891e+07 2.05033e+07 2.08649e+07 2.14508e+07 2.23523e+07 2.36491e+07 2.53824e+07 2.75079e+07
          3e+07 2.99357e+07 2.75034e+07 2.5368e+07 2.36363e+07 2.23392e+07 2.14379e+07 2.0852e+07 2.04903e+07 2.02761e+07 2.01538e+07 2.00896e+07
          2.00592e+07 2.0053e+07 2.00518e+07 2.00517e+07 2.00516e+07 2.00516e+07 2.00516e+07 2.00516e+07 2.00516e+07 2.00516e+07 2.00516e+07 2.00516e+07
          2.00516e+07 2.00516e+07 2.00516e+07 2.00516e+07 2.00516e+07 2.00516e+07 2.00516e+07 2.00516e+07 2.00516e+07 2.00516e+07 2.00516e+07 2.00516e+07
          2.00516e+07 2.00516e+07 2.00516e+07 2.00516e+07 2.00516e+07 2.00516e+07 2.00516e+07 2.00516e+07 2.00516e+07 2.00516e+07 2.00513e+07 2.00494e+07
          2.00382e+07 1.99804e+07 1.93562e+07 1.33739e+07 1.93562e+07 1.99804e+07 2.00382e+07 2.00494e+07 2.00513e+07 2.00516e+07 2.00516e+07 2.00516e+07
          2.00516e+07 2.00516e+07 2.00516e+07 2.00516e+07 2.00516e+07 2.00516e+07 2.00516e+07 2.00516e+07 2.00516e+07 2.00516e+07 2.00516e+07 2.00516e+07
          2.00516e+07 2.00516e+07 2.00516e+07 2.00516e+07 2.00516e+07 2.00516e+07 2.00516e+07 2.00516e+07 2.00516e+07 2.00516e+07 2.00516e+07 2.00516e+07
          2.00516e+07 2.00516e+07 2.00516e+07 2.00517e+07 2.00518e+07 2.0053e+07 2.00592e+07 2.00896e+07 2.01538e+07 2.02761e+07 2.04903e+07 2.0852e+07
          2.14379e+07 2.23392e+07 2.36363e+07 2.5368e+07 2.75034e+07 2.99357e+07 2.9889e+07 2.74959e+07 2.53542e+07 2.36235e+07 2.23262e+07 2.14249e+07
          2.0839e+07 2.04773e+07 2.02631e+07 2.01408e+07 2.00767e+07 2.00461e+07 2.004e+07 2.00388e+07 2.00387e+07 2.00387e+07 2.00387e+07 2.00387e+07
          2.00387e+07 2.00387e+07 2.00387e+07 2.00387e+07 2.00387e+07 2.00387e+07 2.00387e+07 2.00387e+07 2.00387e+07 2.00387e+07 2.00387e+07 2.00387e+07
          2.00387e+07 2.00387e+07 2.00387e+07 2.00387e+07 2.00387e+07 2.00387e+07 2.00387e+07 2.00387e+07 2.00387e+07 2.00387e+07 2.00387e+07 2.00387e+07
          2.00387e+07 2.00387e+07 2.00386e+07 2.00383e+07 2.00365e+07 2.00254e+07 1.99682e+07 1.93528e+07 1.33333e+07 1.93528e+07 1.99682e+07 2.00254e+07
          2.00365e+07 2.00383e+07 2.00386e+07 2.00387e+07 2.00387e+07 2.00387e+07 2.00387e+07 2.00387e+07 2.00387e+07 2.00387e+07 2.00387e+07 2.00387e+07
          2.00387e+07 2.00387e+07 2.00387e+07 2.00387e+07 2.00387e+07 2.00387e+07 2.00387e+07 2.00387e+07 2.00387e+07 2.00387e+07 2.00387e+07 2.00387e+07
          2.00387e+07 2.00387e+07 2.00387e+07 2.00387e+07 2.00387e+07 2.00387e+07 2.00387e+07 2.00387e+07 2.00387e+07 2.00388e+07 2.004e+07 2.00461e+07
          2.00767e+07 2.01408e+07 2.02631e+07 2.04773e+07 2.0839e+07 2.14249e+07 2.23262e+07 2.36235e+07 2.53542e+07 2.74959e+07 2.9889e+07 2.98503e+07
          2.7487e+07 2.53406e+07 2.36106e+07 2.23133e+07 2.14119e+07 2.0826e+07 2.04644e+07 2.02502e+07 2.01278e+07 2.00637e+07 2.0033e+07 2.0027e+07
          2.00258e+07 2.00257e+07 2.00257e+07 2.00257e+07 2.00257e+07 2.00257e+07 2.00257e+07 2.00257e+07 2.00257e+07 2.00257e+07 2.00257e+07 2.00257e+07
          2.00257e+07 2.00257e+07 2.00257e+07 2.00257e+07 2.00257e+07 2.00257e+07 2.00257e+07 2.00257e+07 2.00257e+07 2.00257e+07 2.00257e+07 2.00257e+07
          2.00257e+07 2.00257e+07 2.00257e+07 2.00257e+07 2.00257e+07 2.00257e+07 2.00257e+07 2.00257e+07 2.00254e+07 2.00236e+07 2.00126e+07 1.9957e+07
          1.93424e+07 1.33333e+07 1.93424e+07 1.9957e+07 2.00126e+07 2.00236e+07 2.00254e+07 2.00257e+07 2.00257e+07 2.00257e+07 2.00257e+07 2.00257e+07
          2.00257e+07 2.00257e+07 2.00257e+07 2.00257e+07 2.00257e+07 2.00257e+07 2.00257e+07 2.00257e+07 2.00257e+07 2.00257e+07 2.00257e+07 2.00257e+07
          2.00257e+07 2.00257e+07 2.00257e+07 2.00257e+07 2.00257e+07 2.00257e+07 2.00257e+07 2.00257e+07 2.00257e+07 2.00257e+07 2.00257e+07 2.00257e+07
          2.00257e+07 2.00257e+07 2.00258e+07 2.0027e+07 2.0033e+07 2.00637e+07 2.01278e+07 2.02502e+07 2.04644e+07 2.0826e+07 2.14119e+07 2.23133e+07
          2.36106e+07 2.53406e+07 2.7487e+07 2.98503e+07 2.9819e+07 2.74768e+07 2.53271e+07 2.35977e+07 2.23003e+07 2.1399e+07 2.0813e+07 2.04514e+07
          2.02372e+07 2.01149e+07 2.00508e+07 2.00198e+07 2.0014e+07 2.00129e+07 2.00127e+07 2.00127e+07 2.00127e+07 2.00127e+07 2.00127e+07 2.00127e+07
          2.00127e+07 2.00127e+07 2.00127e+07 2.00127e+07 2.00127e+07 2.00127e+07 2.00127e+07 2.00127e+07 2.00127e+07 2.00127e+07 2.00127e+07 2.00127e+07
          2.00127e+07 2.00127e+07 2.00127e+07 2.00127e+07 2.00127e+07 2.00127e+07 2.00127e+07 2.00127e+07 2.00127e+07 2.00127e+07 2.00127e+07 2.00127e+07
          2.00127e+07 2.00124e+07 2.00106e+07 1.99998e+07 1.99455e+07 1.93319e+07 1.33333e+07 1.93319e+07 1.99455e+07 1.99998e+07 2.00106e+07 2.00124e+07
          2.00127e+07 2.00127e+07 2.00127e+07 2.00127e+07 2.00127e+07 2.00127e+07 2.00127e+07 2.00127e+07 2.00127e+07 2.00127e+07 2.00127e+07 2.00127e+07
          2.00127e+07 2.00127e+07 2.00127e+07 2.00127e+07 2.00127e+07 2.00127e+07 2.00127e+07 2.00127e+07 2.00127e+07 2.00127e+07 2.00127e+07 2.00127e+07
          2.00127e+07 2.00127e+07 2.00127e+07 2.00127e+07 2.00127e+07 2.00127e+07 2.00127e+07 2.00129e+07 2.0014e+07 2.00198e+07 2.00508e+07 2.01149e+07
          2.02372e+07 2.04514e+07 2.0813e+07 2.1399e+07 2.23003e+07 2.35977e+07 2.53271e+07 2.74768e+07 2.9819e+07 2.97951e+07 2.74655e+07 2.53139e+07
          2.35847e+07 2.22873e+07 2.1386e+07 2.08001e+07 2.04384e+07 2.02242e+07 2.01019e+07 2.00379e+07 2.00066e+07 2.0001e+07 1.99999e+07 1.99998e+07
          1.99998e+07 1.99998e+07 1.99998e+07 1.99998e+07 1.99998e+07 1.99998e+07 1.99998e+07 1.99998e+07 1.99998e+07 1.99998e+07 1.99998e+07 1.99998e+07
          1.99998e+07 1.99998e+07 1.99998e+07 1.99998e+07 1.99998e+07 1.99998e+07 1.99998e+07 1.99998e+07 1.99998e+07 1.99998e+07 1.99998e+07 1.99998e+07
          1.99998e+07 1.99998e+07 1.99998e+07 1.99998e+07 1.99998e+07 1.99997e+07 1.99995e+07 1.99977e+07 1.99872e+07 1.99336e+07 1.93214e+07 1.33333e+07
          1.93214e+07 1.99336e+07 1.99872e+07 1.99977e+07 1.99995e+07 1.99997e+07 1.99998e+07 1.99998e+07 1.99998e+07 1.99998e+07 1.99998e+07 1.99998e+07
          1.99998e+07 1.99998e+07 1.99998e+07 1.99998e+07 1.99998e+07 1.99998e+07 1.99998e+07 1.99998e+07 1.99998e+07 1.99998e+07 1.99998e+07 1.99998e+07
          1.99998e+07 1.99998e+07 1.99998e+07 1.99998e+07 1.99998e+07 1.99998e+07 1.99998e+07 1.99998e+07 1.99998e+07 1.99998e+07 1.99998e+07 1.99998e+07
          1.99999e+07 2.0001e+07 2.00066e+07 2.00379e+07 2.01019e+07 2.02242e+07 2.04384e+07 2.08001e+07 2.1386e+07 2.22873e+07 2.35847e+07 2.53139e+07
          2.74655e+07 2.97951e+07 2.97784e+07 2.74531e+07 2.53008e+07 2.35718e+07 2.22743e+07 2.1373e+07 2.07871e+07 2.04254e+07 2.02112e+07 2.00889e+07
          2.00249e+07 1.99934e+07 1.99881e+07 1.99869e+07 1.99868e+07 1.99868e+07 1.99868e+07 1.99868e+07 1.99868e+07 1.99868e+07 1.99868e+07 1.99868e+07
          1.99868e+07 1.99868e+07 1.99868e+07 1.99868e+07 1.99868e+07 1.99868e+07 1.99868e+07 1.99868e+07 1.99868e+07 1.99868e+07 1.99868e+07 1.99868e+07
          1.99868e+07 1.99868e+07 1.99868e+07 1.99868e+07 1.99868e+07 1.99868e+07 1.99868e+07 1.99868e+07 1.99868e+07 1.99868e+07 1.99868e+07 1.99865e+07
          1.99848e+07 1.99745e+07 1.99213e+07 1.93109e+07 1.33333e+07 1.93109e+07 1.99213e+07 1.99745e+07 1.99848e+07 1.99865e+07 1.99868e+07 1.99868e+07
          1.99868e+07 1.99868e+07 1.99868e+07 1.99868e+07 1.99868e+07 1.99868e+07 1.99868e+07 1.99868e+07 1.99868e+07 1.99868e+07 1.99868e+07 1.99868e+07
          1.99868e+07 1.99868e+07 1.99868e+07 1.99868e+07 1.99868e+07 1.99868e+07 1.99868e+07 1.99868e+07 1.99868e+07 1.99868e+07 1.99868e+07 1.99868e+07
          1.99868e+07 1.99868e+07 1.99868e+07 1.99868e+07 1.99868e+07 1.99869e+07 1.99881e+07 1.99934e+07 2.00249e+07 2.00889e+07 2.02112e+07 2.04254e+07
          2.07871e+07 2.1373e+07 2.22743e+07 2.35718e+07 2.53008e+07 2.74531e+07 2.97784e+07
        </DataArray>
        <DataArray type="Float32" Name="pressure_g" NumberOfComponents="1" format="ascii">
          3e+07 2.75692e+07 3e+07 2.7554e+07 2.54326e+07 2.542e+07 2.37013e+07 2.36882e+07 2.24041e+07 2.23911e+07 2.15027e+07 2.14898e+07
          2.09168e+07 2.09039e+07 2.05552e+07 2.05422e+07 2.03409e+07 2.0328e+07 2.02187e+07 2.02057e+07 2.01545e+07 2.01415e+07 2.01244e+07 2.01114e+07
          2.01178e+07 2.01049e+07 2.01167e+07 2.01037e+07 2.01165e+07 2.01035e+07 2.01165e+07 2.01035e+07 2.01165e+07 2.01035e+07 2.01165e+07 2.01035e+07
          2.01165e+07 2.01035e+07 2.01165e+07 2.01035e+07 2.01165e+07 2.01035e+07 2.01165e+07 2.01035e+07 2.01165e+07 2.01035e+07 2.01165e+07 2.01035e+07
          2.01165e+07 2.01035e+07 2.01165e+07 2.01035e+07 2.01165e+07 2.01035e+07 2.01165e+07 2.01035e+07 2.01165e+07 2.01035e+07 2.01165e+07 2.01035e+07
          2.01165e+07 2.01035e+07 2.01165e+07 2.01035e+07 2.01165e+07 2.01035e+07 2.01165e+07 2.01035e+07 2.01165e+07 2.01035e+07 2.01165e+07 2.01035e+07
          2.01165e+07 2.01035e+07 2.01165e+07 2.01035e+07 2.01165e+07 2.01035e+07 2.01165e+07 2.01035e+07 2.01165e+07 2.01035e+07 2.01165e+07 2.01035e+07