<?xml version="1.0"?>
<VTKFile type="UnstructuredGrid" version="0.1" byte_order="LittleEndian">
  <UnstructuredGrid>
    <Piece NumberOfCells="1000" NumberOfPoints="1111">
      <PointData Scalars="pressure_o">
        <DataArray type="Float32" Name="pressure_o" NumberOfComponents="1" format="ascii">
          3e+07 2.75783e+07 3e+07 2.75631e+07 2.5446e+07 2.54334e+07 2.3714e+07 2.3701e+07 2.24131e+07 2.24002e+07 2.15074e+07 2.14944e+07
          2.09181e+07 2.09051e+07 2.05546e+07 2.05417e+07 2.034e+07 2.03271e+07 2.02175e+07 2.02045e+07 2.01516e+07 2.01387e+07 2.01277e+07 2.01147e+07
          2.01246e+07 2.01116e+07 2.01244e+07 2.01114e+07 2.01244e+07 2.01114e+07 2.01244e+07 2.01114e+07 2.01243e+07 2.01114e+07 2.01243e+07 2.01114e+07
          2.01243e+07 2.01114e+07 2.01243e+07 2.01114e+07 2.01243e+07 2.01114e+07 2.01243e+07 2.01114e+07 2.01243e+07 2.01114e+07 2.01243e+07 2.01114e+07
          2.01243e+07 2.01114e+07 2.01243e+07 2.01114e+07 2.01243e+07 2.01114e+07 2.01243e+07 2.01114e+07 2.01243e+07 2.01114e+07 2.01243e+07 2.01114e+07
          2.01243e+07 2.01114e+07 2.01243e+07 2.01114e+07 2.01243e+07 2.01114e+07 2.01243e+07 2.01114e+07 2.01243e+07 2.01114e+07 2.01243e+07 2.01114e+07
          2.01243e+07 2.01114e+07 2.01243e+07 2.01114e+07 2.01243e+07 2.01114e+07 2.01243e+07 2.01114e+07 2.01243e+07 2.01114e+07 2.01243e+07 2.01114e+07
          2.01243e+07 2.01114e+07 2.01243e+07 2.01114e+07 2.01243e+07 2.01114e+07 2.01243e+07 2.01113e+07 2.01238e+07 2.01108e+07 2.01195e+07 2.01066e+07
          2.00999e+07 2.00866e+07 1.97952e+07 1.97855e+07 1.34696e+07 1.34643e+07 1.97952e+07 1.97855e+07 2.00999e+07 2.00866e+07 2.01195e+07 2.01066e+07
          2.01238e+07 2.01108e+07 2.01243e+07 2.01113e+07 2.01243e+07 2.01114e+07 2.01243e+07 2.01114e+07 2.01243e+07 2.01114e+07 2.01243e+07 2.01114e+07
          2.01243e+07 2.01114e+07 2.01243e+07 2.01114e+07 2.01243e+07 2.01114e+07 2.01243e+07 2.01114e+07 2.01243e+07 2.01114e+07 2.01243e+07 2.01114e+07
          2.01243e+07 2.01114e+07 2.01243e+07 2.01114e+07 2.01243e+07 2.01114e+07 2.01243e+07 2.01114e+07 2.01243e+07 2.01114e+07 2.01243e+07 2.01114e+07
          2.01243e+07 2.01114e+07 2.01243e+07 2.01114e+07 2.01243e+07 2.01114e+07 2.01243e+07 2.01114e+07 2.01243e+07 2.01114e+07 2.01243e+07 2.01114e+07
          2.01243e+07 2.01114e+07 2.01243e+07 2.01114e+07 2.01243e+07 2.01114e+07 2.01243e+07 2.01114e+07 2.01243e+07 2.01114e+07 2.01243e+07 2.01114e+07
          2.01243e+07 2.01114e+07 2.01244e+07 2.01114e+07 2.01244e+07 2.01114e+07 2.01244e+07 2.01114e+07 2.01246e+07 2.01116e+07 2.01277e+07 2.01147e+07
          2.01516e+07 2.01387e+07 2.02175e+07 2.02045e+07 2.034e+07 2.03271e+07 2.05546e+07 2.05417e+07 2.09181e+07 2.09051e+07 2.15074e+07 2.14944e+07
          2.24131e+07 2.24002e+07 2.3714e+07 2.3701e+07 2.5446e+07 2.54334e+07 2.75783e+07 2.75631e+07 3e+07 3e+07 3e+07 2.75478e+07
          2.54209e+07 2.36879e+07 2.23872e+07 2.14814e+07 2.08921e+07 2.05287e+07 2.03141e+07 2.01916e+07 2.01257e+07 2.01017e+07 2.00987e+07 2.00984e+07
          2.00984e+07 2.00984e+07 2.00984e+07 2.00984e+07 2.00984e+07 2.00984e+07 2.00984e+07 2.00984e+07 2.00984e+07 2.00984e+07 2.00984e+07 2.00984e+07
          2.00984e+07 2.00984e+07 2.00984e+07 2.00984e+07 2.00984e+07 2.00984e+07 2.00984e+07 2.00984e+07 2.00984e+07 2.00984e+07 2.00984e+07 2.00984e+07
          2.00984e+07 2.00984e+07 2.00984e+07 2.00984e+07 2.00984e+07 2.00984e+07 2.00984e+07 2.00983e+07 2.00978e+07 2.00938e+07 2.00729e+07 1.97805e+07
          1.34515e+07 1.97805e+07 2.00729e+07 2.00938e+07 2.00978e+07 2.00983e+07 2.00984e+07 2.00984e+07 2.00984e+07 2.00984e+07 2.00984e+07 2.00984e+07
          2.00984e+07 2.00984e+07 2.00984e+07 2.00984e+07 2.00984e+07 2.00984e+07 2.00984e+07 2.00984e+07 2.00984e+07 2.00984e+07 2.00984e+07 2.00984e+07
          2.00984e+07 2.00984e+07 2.00984e+07 2.00984e+07 2.00984e+07 2.00984e+07 2.00984e+07 2.00984e+07 2.00984e+07 2.00984e+07 2.00984e+07 2.00984e+07
          2.00984e+07 2.00984e+07 2.00987e+07 2.01017e+07 2.01257e+07 2.01916e+07 2.03141e+07 2.05287e+07 2.08921e+07 2.14814e+07 2.23872e+07 2.36879e+07
          2.54209e+07 2.75478e+07 3e+07 3e+07 2.75324e+07 2.54083e+07 2.36749e+07 2.23742e+07 2.14685e+07 2.08792e+07 2.05157e+07 2.03011e+07
          2.01786e+07 2.01126e+07 2.00887e+07 2.00857e+07 2.00855e+07 2.00854e+07 2.00854e+07 2.00854e+07 2.00854e+07 2.00854e+07 2.00854e+07 2.00854e+07
          2.00854e+07 2.00854e+07 2.00854e+07 2.00854e+07 2.00854e+07 2.00854e+07 2.00854e+07 2.00854e+07 2.00854e+07 2.00854e+07 2.00854e+07 2.00854e+07
          2.00854e+07 2.00854e+07 2.00854e+07 2.00854e+07 2.00854e+07 2.00854e+07 2.00854e+07 2.00854e+07 2.00854e+07 2.00854e+07 2.00854e+07 2.00854e+07
          2.00854e+07 2.00848e+07 2.00811e+07 2.0059e+07 1.97791e+07 1.34313e+07 1.97791e+07 2.0059e+07 2.00811e+07 2.00848e+07 2.00854e+07 2.00854e+07
          2.00854e+07 2.00854e+07 2.00854e+07 2.00854e+07 2.00854e+07 2.00854e+07 2.00854e+07 2.00854e+07 2.00854e+07 2.00854e+07 2.00854e+07 2.00854e+07
          2.00854e+07 2.00854e+07 2.00854e+07 2.00854e+07 2.00854e+07 2.00854e+07 2.00854e+07 2.00854e+07 2.00854e+07 2.00854e+07 2.00854e+07 2.00854e+07
          2.00854e+07 2.00854e+07 2.00854e+07 2.00854e+07 2.00854e+07 2.00854e+07 2.00855e+07 2.00857e+07 2.00887e+07 2.01126e+07 2.01786e+07 2.03011e+07
          2.05157e+07 2.08792e+07 2.14685e+07 2.23742e+07 2.36749e+07 2.54083e+07 2.75324e+07 3e+07 3e+07 2.7517e+07 2.53958e+07 2.36618e+07
          2.23613e+07 2.14555e+07 2.08662e+07 2.05027e+07 2.02881e+07 2.01656e+07 2.00995e+07 2.00756e+07 2.00727e+07 2.00725e+07 2.00725e+07 2.00725e+07
          2.00725e+07 2.00725e+07 2.00725e+07 2.00725e+07 2.00725e+07 2.00725e+07 2.00725e+07 2.00725e+07 2.00725e+07 2.00725e+07 2.00725e+07 2.00725e+07
          2.00725e+07 2.00725e+07 2.00725e+07 2.00725e+07 2.00725e+07 2.00725e+07 2.00725e+07 2.00725e+07 2.00725e+07 2.00725e+07 2.00725e+07 2.00725e+07
          2.00725e+07 2.00725e+07 2.00725e+07 2.00725e+07 2.00725e+07 2.00724e+07 2.00718e+07 2.00684e+07 2.00449e+07 1.97804e+07 1.34043e+07 1.97804e+07
          2.00449e+07 2.00684e+07 2.00718e+07 2.00724e+07 2.00725e+07 2.00725e+07 2.00725e+07 2.00725e+07 2.00725e+07 2.00725e+07 2.00725e+07 2.00725e+07
          2.00725e+07 2.00725e+07 2.00725e+07 2.00725e+07 2.00725e+07 2.00725e+07 2.00725e+07 2.00725e+07 2.00725e+07 2.00725e+07 2.00725e+07 2.00725e+07
          2.00725e+07 2.00725e+07 2.00725e+07 2.00725e+07 2.00725e+07 2.00725e+07 2.00725e+07 2.00725e+07 2.00725e+07 2.00725e+07 2.00725e+07 2.00725e+07
          2.00727e+07 2.00756e+07 2.00995e+07 2.01656e+07 2.02881e+07 2.05027e+07 2.08662e+07 2.14555e+07 2.23613e+07 2.36618e+07 2.53958e+07 2.7517e+07
          3e+07 2.99359e+07 2.75125e+07 2.53814e+07 2.3649e+07 2.23483e+07 2.14425e+07 2.08532e+07 2.04898e+07 2.02752e+07 2.01527e+07 2.00865e+07
          2.00626e+07 2.00598e+07 2.00595e+07 2.00595e+07 2.00595e+07 2.00595e+07 2.00595e+07 2.00595e+07 2.00595e+07 2.00595e+07 2.00595e+07 2.00595e+07
          2.00595e+07 2.00595e+07 2.00595e+07 2.00595e+07 2.00595e+07 2.00595e+07 2.00595e+07 2.00595e+07 2.00595e+07 2.00595e+07 2.00595e+07 2.00595e+07
          2.00595e+07 2.00595e+07 2.00595e+07 2.00595e+07 2.00595e+07 2.00595e+07 2.00595e+07 2.00595e+07 2.00595e+07 2.00595e+07 2.00594e+07 2.00588e+07
          2.00557e+07 2.0031e+07 1.97834e+07 1.33713e+07 1.97834e+07 2.0031e+07 2.00557e+07 2.00588e+07 2.00594e+07 2.00595e+07 2.00595e+07 2.00595e+07
          2.00595e+07 2.00595e+07 2.00595e+07 2.00595e+07 2.00595e+07 2.00595e+07 2.00595e+07 2.00595e+07 2.00595e+07 2.00595e+07 2.00595e+07 2.00595e+07
          2.00595e+07 2.00595e+07 2.00595e+07 2.00595e+07 2.00595e+07 2.00595e+07 2.00595e+07 2.00595e+07 2.00595e+07 2.00595e+07 2.00595e+07 2.00595e+07
          2.00595e+07 2.00595e+07 2.00595e+07 2.00595e+07 2.00595e+07 2.00598e+07 2.00626e+07 2.00865e+07 2.01527e+07 2.02752e+07 2.04898e+07 2.08532e+07
          2.14425e+07 2.23483e+07 2.3649e+07 2.53814e+07 2.75125e+07 2.99359e+07 2.98893e+07 2.75049e+07 2.53676e+07 2.36362e+07 2.23353e+07 2.14295e+07
          2.08402e+07 2.04768e+07 2.02622e+07 2.01397e+07 2.00733e+07 2.00495e+07 2.00468e+07 2.00466e+07 2.00465e+07 2.00465e+07 2.00465e+07 2.00465e+07
          2.00465e+07 2.00465e+07 2.00465e+07 2.00465e+07 2.00465e+07 2.00465e+07 2.00465e+07 2.00465e+07 2.00465e+07 2.00465e+07 2.00465e+07 2.00465e+07
          2.00465e+07 2.00465e+07 2.00465e+07 2.00465e+07 2.00465e+07 2.00465e+07 2.00465e+07 2.00465e+07 2.00465e+07 2.00465e+07 2.00465e+07 2.00465e+07
          2.00465e+07 2.00465e+07 2.00465e+07 2.00465e+07 2.00458e+07 2.0043e+07 2.00173e+07 1.97866e+07 1.33333e+07 1.97866e+07 2.00173e+07 2.0043e+07
          2.00458e+07 2.00465e+07 2.00465e+07 2.00465e+07 2.00465e+07 2.00465e+07 2.00465e+07 2.00465e+07 2.00465e+07 2.00465e+07 2.00465e+07 2.00465e+07
          2.00465e+07 2.00465e+07 2.00465e+07 2.00465e+07 2.00465e+07 2.00465e+07 2.00465e+07 2.00465e+07 2.00465e+07 2.00465e+07 2.00465e+07 2.00465e+07
          2.00465e+07 2.00465e+07 2.00465e+07 2.00465e+07 2.00465e+07 2.00465e+07 2.00465e+07 2.00465e+07 2.00465e+07 2.00466e+07 2.00468e+07 2.00495e+07
          2.00733e+07 2.01397e+07 2.02622e+07 2.04768e+07 2.08402e+07 2.14295e+07 2.23353e+07 2.36362e+07 2.53676e+07 2.75049e+07 2.98893e+07 2.98507e+07
          2.7496e+07 2.5354e+07 2.36233e+07 2.23223e+07 2.14166e+07 2.08273e+07 2.04638e+07 2.02492e+07 2.01268e+07 2.00602e+07 2.00364e+07 2.00338e+07
          2.00336e+07 2.00336e+07 2.00336e+07 2.00336e+07 2.00336e+07 2.00336e+07 2.00336e+07 2.00336e+07 2.00336e+07 2.00336e+07 2.00336e+07 2.00336e+07
          2.00336e+07 2.00336e+07 2.00336e+07 2.00336e+07 2.00336e+07 2.00336e+07 2.00336e+07 2.00336e+07 2.00336e+07 2.00336e+07 2.00336e+07 2.00336e+07
          2.00336e+07 2.00336e+07 2.00336e+07 2.00336e+07 2.00336e+07 2.00336e+07 2.00336e+07 2.00335e+07 2.00335e+07 2.00329e+07 2.003e+07 2.00053e+07
          1.97815e+07 1.33333e+07 1.97815e+07 2.00053e+07 2.003e+07 2.00329e+07 2.00335e+07 2.00335e+07 2.00336e+07 2.00336e+07 2.00336e+07 2.00336e+07
          2.00336e+07 2.00336e+07 2.00336e+07 2.00336e+07 2.00336e+07 2.00336e+07 2.00336e+07 2.00336e+07 2.00336e+07 2.00336e+07 2.00336e+07 2.00336e+07
          2.00336e+07 2.00336e+07 2.00336e+07 2.00336e+07 2.00336e+07 2.00336e+07 2.00336e+07 2.00336e+07 2.00336e+07 2.00336e+07 2.00336e+07 2.00336e+07
          2.00336e+07 2.00336e+07 2.00336e+07 2.00338e+07 2.00364e+07 2.00602e+07 2.01268e+07 2.02492e+07 2.04638e+07 2.08273e+07 2.14166e+07 2.23223e+07
          2.36233e+07 2.5354e+07 2.7496e+07 2.98507e+07 2.98194e+07 2.74858e+07 2.53406e+07 2.36104e+07 2.23093e+07 2.14036e+07 2.08143e+07 2.04509e+07
          2.02362e+07 2.01138e+07 2.0047e+07 2.00232e+07 2.00208e+07 2.00206e+07 2.00206e+07 2.00206e+07 2.00206e+07 2.00206e+07 2.00206e+07 2.00206e+07
          2.00206e+07 2.00206e+07 2.00206e+07 2.00206e+07 2.00206e+07 2.00206e+07 2.00206e+07 2.00206e+07 2.00206e+07 2.00206e+07 2.00206e+07 2.00206e+07
          2.00206e+07 2.00206e+07 2.00206e+07 2.00206e+07 2.00206e+07 2.00206e+07 2.00206e+07 2.00206e+07 2.00206e+07 2.00206e+07 2.00206e+07 2.00206e+07
          2.00206e+07 2.00205e+07 2.002e+07 2.00169e+07 1.9994e+07 1.97743e+07 1.33333e+07 1.97743e+07 1.9994e+07 2.00169e+07 2.002e+07 2.00205e+07
          2.00206e+07 2.00206e+07 2.00206e+07 2.00206e+07 2.00206e+07 2.00206e+07 2.00206e+07 2.00206e+07 2.00206e+07 2.00206e+07 2.00206e+07 2.00206e+07
          2.00206e+07 2.00206e+07 2.00206e+07 2.00206e+07 2.00206e+07 2.00206e+07 2.00206e+07 2.00206e+07 2.00206e+07 2.00206e+07 2.00206e+07 2.00206e+07
          2.00206e+07 2.00206e+07 2.00206e+07 2.00206e+07 2.00206e+07 2.00206e+07 2.00206e+07 2.00206e+07 2.00208e+07 2.00232e+07 2.0047e+07 2.01138e+07
          2.02362e+07 2.04509e+07 2.08143e+07 2.14036e+07 2.23093e+07 2.36104e+07 2.53406e+07 2.74858e+07 2.98194e+07 2.97956e+07 2.74745e+07 2.53273e+07
          2.35975e+07 2.22963e+07 2.13906e+07 2.08013e+07 2.04379e+07 2.02233e+07 2.01009e+07 2.00338e+07 2.00101e+07 2.00079e+07 2.00076e+07 2.00076e+07
          2.00076e+07 2.00076e+07 2.00076e+07 2.00076e+07 2.00076e+07 2.00076e+07 2.00076e+07 2.00076e+07 2.00076e+07 2.00076e+07 2.00076e+07 2.00076e+07
          2.00076e+07 2.00076e+07 2.00076e+07 2.00076e+07 2.00076e+07 2.00076e+07 2.00076e+07 2.00076e+07 2.00076e+07 2.00076e+07 2.00076e+07 2.00076e+07
          2.00076e+07 2.00076e+07 2.00076e+07 2.00076e+07 2.00076e+07 2.00076e+07 2.00076e+07 2.0007e+07 2.0004e+07 1.99822e+07 1.97654e+07 1.33333e+07
          1.97654e+07 1.99822e+07 2.0004e+07 2.0007e+07 2.00076e+07 2.00076e+07 2.00076e+07 2.00076e+07 2.00076e+07 2.00076e+07 2.00076e+07 2.00076e+07
          2.00076e+07 2.00076e+07 2.00076e+07 2.00076e+07 2.00076e+07 2.00076e+07 2.00076e+07 2.00076e+07 2.00076e+07 2.00076e+07 2.00076e+07 2.00076e+07
          2.00076e+07 2.00076e+07 2.00076e+07 2.00076e+07 2.00076e+07 2.00076e+07 2.00076e+07 2.00076e+07 2.00076e+07 2.00076e+07 2.00076e+07 2.00076e+07
          2.00076e+07 2.00079e+07 2.00101e+07 2.00338e+07 2.01009e+07 2.02233e+07 2.04379e+07 2.08013e+07 2.13906e+07 2.22963e+07 2.35975e+07 2.53273e+07
          2.74745e+07 2.97956e+07 2.97789e+07 2.74621e+07 2.53143e+07 2.35845e+07 2.22833e+07 2.13777e+07 2.07884e+07 2.04249e+07 2.02103e+07 2.0088e+07
          2.00206e+07 1.99969e+07 1.99949e+07 1.99947e+07 1.99946e+07 1.99946e+07 1.99946e+07 1.99946e+07 1.99946e+07 1.99946e+07 1.99946e+07 1.99946e+07
          1.99946e+07 1.99946e+07 1.99946e+07 1.99946e+07 1.99946e+07 1.99946e+07 1.99946e+07 1.99946e+07 1.99946e+07 1.99946e+07 1.99946e+07 1.99946e+07
          1.99946e+07 1.99946e+07 1.99946e+07 1.99946e+07 1.99946e+07 1.99946e+07 1.99946e+07 1.99946e+07 1.99946e+07 1.99946e+07 1.99946e+07 1.99946e+07
          1.99941e+07 1.99911e+07 1.99699e+07 1.9755e+07 1.33333e+07 1.9755e+07 1.99699e+07 1.99911e+07 1.99941e+07 1.99946e+07 1.99946e+07 1.99946e+07
          1.99946e+07 1.99946e+07 1.99946e+07 1.99946e+07 1.99946e+07 1.99946e+07 1.99946e+07 1.99946e+07 1.99946e+07 1.99946e+07 1.99946e+07 1.99946e+07
          1.99946e+07 1.99946e+07 1.99946e+07 1.99946e+07 1.99946e+07 1.99946e+07 1.99946e+07 1.99946e+07 1.99946e+07 1.99946e+07 1.99946e+07 1.99946e+07
          1.99946e+07 1.99946e+07 1.99946e+07 1.99946e+07 1.99946e+07 1.99947e+07 1.99949e+07 1.99969e+07 2.00206e+07 2.0088e+07 2.02103e+07 2.04249e+07
          2.07884e+07 2.13777e+07 2.22833e+07 2.35845e+07 2.53143e+07 2.74621e+07 2.97789e+07
        </DataArray>
        <DataArray type="Float32" Name="pressure_w" NumberOfComponents="1" format="ascii">
          3e+07 2.75783e+07 3e+07 2.75631e+07 2.5446e+07 2.54334e+07 2.3714e+07 2.3701e+07 2.24131e+07 2.24002e+07 2.15074e+07 2.14944e+07
          2.09181e+07 2.09051e+07 2.05546e+07 2.05417e+07 2.034e+07 2.03271e+07 2.02175e+07 2.02045e+07 2.01516e+07 2.01387e+07 2.01277e+07 2.01147e+07
          2.01246e+07 2.01116e+07 2.01244e+07 2.01114e+07 2.01244e+07 2.01114e+07 2.01244e+07 2.01114e+07 2.01243e+07 2.01114e+07 2.01243e+07 2.01114e+07
          2.01243e+07 2.01114e+07 2.01243e+07 2.01114e+07 2.01243e+07 2.01114e+07 2.01243e+07 2.01114e+07 2.01243e+07 2.01114e+07 2.01243e+07 2.01114e+07
          2.01243e+07 2.01114e+07 2.01243e+07 2.01114e+07 2.01243e+07 2.01114e+07 2.01243e+07 2.01114e+07 2.01243e+07 2.01114e+07 2.01243e+07 2.01114e+07
          2.01243e+07 2.01114e+07 2.01243e+07 2.01114e+07 2.01243e+07 2.01114e+07 2.01243e+07 2.01114e+07 2.01243e+07 2.01114e+07 2.01243e+07 2.01114e+07
          2.01243e+07 2.01114e+07 2.01243e+07 2.01114e+07 2.01243e+07 2.01114e+07 2.01243e+07 2.01114e+07 2.01243e+07 2.01114e+07 2.01243e+07 2.01114e+07
          2.01243e+07 2.01114e+07 2.01243e+07 2.01114e+07 2.01243e+07 2.01114e+07 2.01243e+07 2.01113e+07 2.01238e+07 2.01108e+07 2.01195e+07 2.01066e+07
          2.00999e+07 2.00866e+07 1.97952e+07 1.97855e+07 1.34696e+07 1.34643e+07 1.97952e+07 1.97855e+07 2.00999e+07 2.00866e+07 2.01195e+07 2.01066e+07
          2.01238e+07 2.01108e+07 2.01243e+07 2.01113e+07 2.01243e+07 2.01114e+07 2.01243e+07 2.01114e+07 2.01243e+07 2.01114e+07 2.01243e+07 2.01114e+07
          2.01243e+07 2.01114e+07 2.01243e+07 2.01114e+07 2.01243e+07 2.01114e+07 2.01243e+07 2.01114e+07 2.01243e+07 2.01114e+07 2.01243e+07 2.01114e+07
          2.01243e+07 2.01114e+07 2.01243e+07 2.01114e+07 2.01243e+07 2.01114e+07 2.01243e+07 2.01114e+07 2.01243e+07 2.01114e+07 2.01243e+07 2.01114e+07
          2.01243e+07 2.01114e+07 2.01243e+07 2.01114e+07 2.01243e+07 2.01114e+07 2.01243e+07 2.01114e+07 2.01243e+07 2.01114e+07 2.01243e+07 2.01114e+07
          2.01243e+07 2.01114e+07 2.01243e+07 2.01114e+07 2.01243e+07 2.01114e+07 2.01243e+07 2.01114e+07 2.01243e+07 2.01114e+07 2.01243e+07 2.01114e+07
          2.01243e+07 2.01114e+07 2.01244e+07 2.01114e+07 2.01244e+07 2.01114e+07 2.01244e+07 2.01114e+07 2.01246e+07 2.01116e+07 2.01277e+07 2.01147e+07
          2.01516e+07 2.01387e+07 2.02175e+07 2.02045e+07 2.034e+07 2.03271e+07 2.05546e+07 2.05417e+07 2.09181e+07 2.09051e+07 2.15074e+07 2.14944e+07
          2.24131e+07 2.24002e+07 2.3714e+07 2.3701e+07 2.5446e+07 2.54334e+07 2.75783e+07 2.75631e+07 3e+07 3e+07 3e+07 2.75478e+07
          2.54209e+07 2.36879e+07 2.23872e+07 2.14814e+07 2.08921e+07 2.05287e+07 2.03141e+07 2.01916e+07 2.01257e+07 2.01017e+07 2.00987e+07 2.00984e+07
          2.00984e+07 2.00984e+07 2.00984e+07 2.00984e+07 2.00984e+07 2.00984e+07 2.00984e+07 2.00984e+07 2.00984e+07 2.00984e+07 2.00984e+07 2.00984e+07
          2.00984e+07 2.00984e+07 2.00984e+07 2.00984e+07 2.00984e+07 2.00984e+07 2.00984e+07 2.00984e+07 2.00984e+07 2.00984e+07 2.00984e+07 2.00984e+07
          2.00984e+07 2.00984e+07 2.00984e+07 2.00984e+07 2.00984e+07 2.00984e+07 2.00984e+07 2.00983e+07 2.00978e+07 2.00938e+07 2.00729e+07 1.97805e+07
          1.34515e+07 1.97805e+07 2.00729e+07 2.00938e+07 2.00978e+07 2.00983e+07 2.00984e+07 2.00984e+07 2.00984e+07 2.00984e+07 2.00984e+07 2.00984e+07
          2.00984e+07 2.00984e+07 2.00984e+07 2.00984e+07 2.00984e+07 2.00984e+07 2.00984e+07 2.00984e+07 2.00984e+07 2.00984e+07 2.00984e+07 2.00984e+07
          2.00984e+07 2.00984e+07 2.00984e+07 2.00984e+07 2.00984e+07 2.00984e+07 2.00984e+07 2.00984e+07 2.00984e+07 2.00984e+07 2.00984e+07 2.00984e+07
          2.00984e+07 2.00984e+07 2.00987e+07 2.01017e+07 2.01257e+07 2.01916e+07 2.03141e+07 2.05287e+07 2.08921e+07 2.14814e+07 2.23872e+07 2.36879e+07
          2.54209e+07 2.75478e+07 3e+07 3e+07 2.75324e+07 2.54083e+07 2.36749e+07 2.23742e+07 2.14685e+07 2.08792e+07 2.05157e+07 2.03011e+07
          2.01786e+07 2.01126e+07 2.00887e+07 2.00857e+07 2.00855e+07 2.00854e+07 2.00854e+07 2.00854e+07 2.00854e+07 2.00854e+07 2.00854e+07 2.00854e+07
          2.00854e+07 2.00854e+07 2.00854e+07 2.00854e+07 2.00854e+07 2.00854e+07 2.00854e+07 2.00854e+07 2.00854e+07 2.00854e+07 2.00854e+07 2.00854e+07
          2.00854e+07 2.00854e+07 2.00854e+07 2.00854e+07 2.00854e+07 2.00854e+07 2.00854e+07 2.00854e+07 2.00854e+07 2.00854e+07 2.00854e+07 2.00854e+07
          2.00854e+07 2.00848e+07 2.00811e+07 2.0059e+07 1.97791e+07 1.34313e+07 1.97791e+07 2.0059e+07 2.00811e+07 2.00848e+07 2.00854e+07 2.00854e+07
          2.00854e+07 2.00854e+07 2.00854e+07 2.00854e+07 2.00854e+07 2.00854e+07 2.00854e+07 2.00854e+07 2.00854e+07 2.00854e+07 2.00854e+07 2.00854e+07
          2.00854e+07 2.00854e+07 2.00854e+07 2.00854e+07 2.00854e+07 2.00854e+07 2.00854e+07 2.00854e+07 2.00854e+07 2.00854e+07 2.00854e+07 2.00854e+07
          2.00854e+07 2.00854e+07 2.00854e+07 2.00854e+07 2.00854e+07 2.00854e+07 2.00855e+07 2.00857e+07 2.00887e+07 2.01126e+07 2.01786e+07 2.03011e+07
          2.05157e+07 2.08792e+07 2.14685e+07 2.23742e+07 2.36749e+07 2.54083e+07 2.75324e+07 3e+07 3e+07 2.7517e+07 2.53958e+07 2.36618e+07
          2.23613e+07 2.14555e+07 2.08662e+07 2.05027e+07 2.02881e+07 2.01656e+07 2.00995e+07 2.00756e+07 2.00727e+07 2.00725e+07 2.00725e+07 2.00725e+07
          2.00725e+07 2.00725e+07 2.00725e+07 2.00725e+07 2.00725e+07 2.00725e+07 2.00725e+07 2.00725e+07 2.00725e+07 2.00725e+07 2.00725e+07 2.00725e+07
          2.00725e+07 2.00725e+07 2.00725e+07 2.00725e+07 2.00725e+07 2.00725e+07 2.00725e+07 2.00725e+07 2.00725e+07 2.00725e+07 2.00725e+07 2.00725e+07
          2.00725e+07 2.00725e+07 2.00725e+07 2.00725e+07 2.00725e+07 2.00724e+07 2.00718e+07 2.00684e+07 2.00449e+07 1.97804e+07 1.34043e+07 1.97804e+07
          2.00449e+07 2.00684e+07 2.00718e+07 2.00724e+07 2.00725e+07 2.00725e+07 2.00725e+07 2.00725e+07 2.00725e+07 2.00725e+07 2.00725e+07 2.00725e+07
          2.00725e+07 2.00725e+07 2.00725e+07 2.00725e+07 2.00725e+07 2.00725e+07 2.00725e+07 2.00725e+07 2.00725e+07 2.00725e+07 2.00725e+07 2.00725e+07
          2.00725e+07 2.00725e+07 2.00725e+07 2.00725e+07 2.00725e+07 2.00725e+07 2.00725e+07 2.00725e+07 2.00725e+07 2.00725e+07 2.00725e+07 2.00725e+07
          2.00727e+07 2.00756e+07 2.00995e+07 2.01656e+07 2.02881e+07 2.05027e+07 2.08662e+07 2.14555e+07 2.23613e+07 2.36618e+07 2.53958e+07 2.7517e+07
          3e+07 2.99359e+07 2.75125e+07 2.53814e+07 2.3649e+07 2.23483e+07 2.14425e+07 2.08532e+07 2.04898e+07 2.02752e+07 2.01527e+07 2.00865e+07
          2.00626e+07 2.00598e+07 2.00595e+07 2.00595e+07 2.00595e+07 2.00595e+07 2.00595e+07 2.00595e+07 2.00595e+07 2.00595e+07 2.00595e+07 2.00595e+07
          2.00595e+07 2.00595e+07 2.00595e+07 2.00595e+07 2.00595e+07 2.00595e+07 2.00595e+07 2.00595e+07 2.00595e+07 2.00595e+07 2.00595e+07 2.00595e+07
          2.00595e+07 2.00595e+07 2.00595e+07 2.00595e+07 2.00595e+07 2.00595e+07 2.00595e+07 2.00595e+07 2.00595e+07 2.00595e+07 2.00594e+07 2.00588e+07
          2.00557e+07 2.0031e+07 1.97834e+07 1.33713e+07 1.97834e+07 2.0031e+07 2.00557e+07 2.00588e+07 2.00594e+07 2.00595e+07 2.00595e+07 2.00595e+07
          2.00595e+07 2.00595e+07 2.00595e+07 2.00595e+07 2.00595e+07 2.00595e+07 2.00595e+07 2.00595e+07 2.00595e+07 2.00595e+07 2.00595e+07 2.00595e+07
          2.00595e+07 2.00595e+07 2.00595e+07 2.00595e+07 2.00595e+07 2.00595e+07 2.00595e+07 2.00595e+07 2.00595e+07 2.00595e+07 2.00595e+07 2.00595e+07
          2.00595e+07 2.00595e+07 2.00595e+07 2.00595e+07 2.00595e+07 2.00598e+07 2.00626e+07 2.00865e+07 2.01527e+07 2.02752e+07 2.04898e+07 2.08532e+07
          2.14425e+07 2.23483e+07 2.3649e+07 2.53814e+07 2.75125e+07 2.99359e+07 2.98893e+07 2.75049e+07 2.53676e+07 2.36362e+07 2.23353e+07 2.14295e+07
          2.08402e+07 2.04768e+07 2.02622e+07 2.01397e+07 2.00733e+07 2.00495e+07 2.00468e+07 2.00466e+07 2.00465e+07 2.00465e+07 2.00465e+07 2.00465e+07
          2.00465e+07 2.00465e+07 2.00465e+07 2.00465e+07 2.00465e+07 2.00465e+07 2.00465e+07 2.00465e+07 2.00465e+07 2.00465e+07 2.00465e+07 2.00465e+07
          2.00465e+07 2.00465e+07 2.00465e+07 2.00465e+07 2.00465e+07 2.00465e+07 2.00465e+07 2.00465e+07 2.00465e+07 2.00465e+07 2.00465e+07 2.00465e+07
          2.00465e+07 2.00465e+07 2.00465e+07 2.00465e+07 2.00458e+07 2.0043e+07 2.00173e+07 1.97866e+07 1.33333e+07 1.97866e+07 2.00173e+07 2.0043e+07
          2.00458e+07 2.00465e+07 2.00465e+07 2.00465e+07 2.00465e+07 2.00465e+07 2.00465e+07 2.00465e+07 2.00465e+07 2.00465e+07 2.00465e+07 2.00465e+07
          2.00465e+07 2.00465e+07 2.00465e+07 2.00465e+07 2.00465e+07 2.00465e+07 2.00465e+07 2.00465e+07 2.00465e+07 2.00465e+07 2.00465e+07 2.00465e+07
          2.00465e+07 2.00465e+07 2.00465e+07 2.00465e+07 2.00465e+07 2.00465e+07 2.00465e+07 2.00465e+07 2.00465e+07 2.00466e+07 2.00468e+07 2.00495e+07
          2.00733e+07 2.01397e+07 2.02622e+07 2.04768e+07 2.08402e+07 2.14295e+07 2.23353e+07 2.36362e+07 2.53676e+07 2.75049e+07 2.98893e+07 2.98507e+07
          2.7496e+07 2.5354e+07 2.36233e+07 2.23223e+07 2.14166e+07 2.08273e+07 2.04638e+07 2.02492e+07 2.01268e+07 2.00602e+07 2.00364e+07 2.00338e+07
          2.00336e+07 2.00336e+07 2.00336e+07 2.00336e+07 2.00336e+07 2.00336e+07 2.00336e+07 2.00336e+07 2.00336e+07 2.00336e+07 2.00336e+07 2.00336e+07
          2.00336e+07 2.00336e+07 2.00336e+07 2.00336e+07 2.00336e+07 2.00336e+07 2.00336e+07 2.00336e+07 2.00336e+07 2.00336e+07 2.00336e+07 2.00336e+07
          2.00336e+07 2.00336e+07 2.00336e+07 2.00336e+07 2.00336e+07 2.00336e+07 2.00336e+07 2.00335e+07 2.00335e+07 2.00329e+07 2.003e+07 2.00053e+07
          1.97815e+07 1.33333e+07 1.97815e+07 2.00053e+07 2.003e+07 2.00329e+07 2.00335e+07 2.00335e+07 2.00336e+07 2.00336e+07 2.00336e+07 2.00336e+07
          2.00336e+07 2.00336e+07 2.00336e+07 2.00336e+07 2.00336e+07 2.00336e+07 2.00336e+07 2.00336e+07 2.00336e+07 2.00336e+07 2.00336e+07 2.00336e+07
          2.00336e+07 2.00336e+07 2.00336e+07 2.00336e+07 2.00336e+07 2.00336e+07 2.00336e+07 2.00336e+07 2.00336e+07 2.00336e+07 2.00336e+07 2.00336e+07
          2.00336e+07 2.00336e+07 2.00336e+07 2.00338e+07 2.00364e+07 2.00602e+07 2.01268e+07 2.02492e+07 2.04638e+07 2.08273e+07 2.14166e+07 2.23223e+07
          2.36233e+07 2.5354e+07 2.7496e+07 2.98507e+07 2.98194e+07 2.74858e+07 2.53406e+07 2.36104e+07 2.23093e+07 2.14036e+07 2.08143e+07 2.04509e+07
          2.02362e+07 2.01138e+07 2.0047e+07 2.00232e+07 2.00208e+07 2.00206e+07 2.00206e+07 2.00206e+07 2.00206e+07 2.00206e+07 2.00206e+07 2.00206e+07
          2.00206e+07 2.00206e+07 2.00206e+07 2.00206e+07 2.00206e+07 2.00206e+07 2.00206e+07 2.00206e+07 2.00206e+07 2.00206e+07 2.00206e+07 2.00206e+07
          2.00206e+07 2.00206e+07 2.00206e+07 2.00206e+07 2.00206e+07 2.00206e+07 2.00206e+07 2.00206e+07 2.00206e+07 2.00206e+07 2.00206e+07 2.00206e+07
          2.00206e+07 2.00205e+07 2.002e+07 2.00169e+07 1.9994e+07 1.97743e+07 1.33333e+07 1.97743e+07 1.9994e+07 2.00169e+07 2.002e+07 2.00205e+07
          2.00206e+07 2.00206e+07 2.00206e+07 2.00206e+07 2.00206e+07 2.00206e+07 2.00206e+07 2.00206e+07 2.00206e+07 2.00206e+07 2.00206e+07 2.00206e+07
          2.00206e+07 2.00206e+07 2.00206e+07 2.00206e+07 2.00206e+07 2.00206e+07 2.00206e+07 2.00206e+07 2.00206e+07 2.00206e+07 2.00206e+07 2.00206e+07
          2.00206e+07 2.00206e+07 2.00206e+07 2.00206e+07 2.00206e+07 2.00206e+07 2.00206e+07 2.00206e+07 2.00208e+07 2.00232e+07 2.0047e+07 2.01138e+07
          2.02362e+07 2.04509e+07 2.08143e+07 2.14036e+07 2.23093e+07 2.36104e+07 2.53406e+07 2.74858e+07 2.98194e+07 2.97956e+07 2.74745e+07 2.53273e+07
          2.35975e+07 2.22963e+07 2.13906e+07 2.08013e+07 2.04379e+07 2.02233e+07 2.01009e+07 2.00338e+07 2.00101e+07 2.00079e+07 2.00076e+07 2.00076e+07
          2.00076e+07 2.00076e+07 2.00076e+07 2.00076e+07 2.00076e+07 2.00076e+07 2.00076e+07 2.00076e+07 2.00076e+07 2.00076e+07 2.00076e+07 2.00076e+07
          2.00076e+07 2.00076e+07 2.00076e+07 2.00076e+07 2.00076e+07 2.00076e+07 2.00076e+07 2.00076e+07 2.00076e+07 2.00076e+07 2.00076e+07 2.00076e+07
          2.00076e+07 2.00076e+07 2.00076e+07 2.00076e+07 2.00076e+07 2.00076e+07 2.00076e+07 2.0007e+07 2.0004e+07 1.99822e+07 1.97654e+07 1.33333e+07
          1.97654e+07 1.99822e+07 2.0004e+07 2.0007e+07 2.00076e+07 2.00076e+07 2.00076e+07 2.00076e+07 2.00076e+07 2.00076e+07 2.00076e+07 2.00076e+07
          2.00076e+07 2.00076e+07 2.00076e+07 2.00076e+07 2.00076e+07 2.00076e+07 2.00076e+07 2.00076e+07 2.00076e+07 2.00076e+07 2.00076e+07 2.00076e+07
          2.00076e+07 2.00076e+07 2.00076e+07 2.00076e+07 2.00076e+07 2.00076e+07 2.00076e+07 2.00076e+07 2.00076e+07 2.00076e+07 2.00076e+07 2.00076e+07
          2.00076e+07 2.00079e+07 2.00101e+07 2.00338e+07 2.01009e+07 2.02233e+07 2.04379e+07 2.08013e+07 2.13906e+07 2.22963e+07 2.35975e+07 2.53273e+07
          2.74745e+07 2.97956e+07 2.97789e+07 2.74621e+07 2.53143e+07 2.35845e+07 2.22833e+07 2.13777e+07 2.07884e+07 2.04249e+07 2.02103e+07 2.0088e+07
          2.00206e+07 1.99969e+07 1.99949e+07 1.99947e+07 1.99946e+07 1.99946e+07 1.99946e+07 1.99946e+07 1.99946e+07 1.99946e+07 1.99946e+07 1.99946e+07
          1.99946e+07 1.99946e+07 1.99946e+07 1.99946e+07 1.99946e+07 1.99946e+07 1.99946e+07 1.99946e+07 1.99946e+07 1.99946e+07 1.99946e+07 1.99946e+07
          1.99946e+07 1.99946e+07 1.99946e+07 1.99946e+07 1.99946e+07 1.99946e+07 1.99946e+07 1.99946e+07 1.99946e+07 1.99946e+07 1.99946e+07 1.99946e+07
          1.99941e+07 1.99911e+07 1.99699e+07 1.9755e+07 1.33333e+07 1.9755e+07 1.99699e+07 1.99911e+07 1.99941e+07 1.99946e+07 1.99946e+07 1.99946e+07
          1.99946e+07 1.99946e+07 1.99946e+07 1.99946e+07 1.99946e+07 1.99946e+07 1.99946e+07 1.99946e+07 1.99946e+07 1.99946e+07 1.99946e+07 1.99946e+07
          1.99946e+07 1.99946e+07 1.99946e+07 1.99946e+07 1.99946e+07 1.99946e+07 1.99946e+07 1.99946e+07 1.99946e+07 1.99946e+07 1.99946e+07 1.99946e+07
          1.99946e+07 1.99946e+07 1.99946e+07 1.99946e+07 1.99946e+07 1.99947e+07 1.99949e+07 1.99969e+07 2.00206e+07 2.0088e+07 2.02103e+07 2.04249e+07
          2.07884e+07 2.13777e+07 2.22833e+07 2.35845e+07 2.53143e+07 2.74621e+07 2.97789e+07
        </DataArray>
        <DataArray type="Float32" Name="pressure_g" NumberOfComponents="1" format="ascii">
          3e+07 2.75783e+07 3e+07 2.75631e+07 2.5446e+07 2.54334e+07 2.3714e+07 2.3701e+07 2.24131e+07 2.24002e+07 2.15074e+07 2.14944e+07
          2.09181e+07 2.09051e+07 2.05546e+07 2.05417e+07 2.034e+07 2.03271e+07 2.02175e+07 2.02045e+07 2.01516e+07 2.01387e+07 2.01277e+07 2.01147e+07
          2.01246e+07 2.01116e+07 2.01244e+07 2.01114e+07 2.01244e+07 2.01114e+07 2.01244e+07 2.01114e+07 2.01243e+07 2.01114e+07 2.01243e+07 2.01114e+07
          2.01243e+07 2.01114e+07 2.01243e+07 2.01114e+07 2.01243e+07 2.01114e+07 2.01243e+07 2.01114e+07 2.01243e+07 2.01114e+07 2.01243e+07 2.01114e+07
          2.01243e+07 2.01114e+07 2.01243e+07 2.01114e+07 2.01243e+07 2.01114e+07 2.01243e+07 2.01114e+07 2.01243e+07 2.01114e+07 2.01243e+07 2.01114e+07
          2.01243e+07 2.01114e+07 2.01243e+07 2.01114e+07 2.01243e+07 2.01114e+07 2.01243e+07 2.01114e+07 2.01243e+07 2.01114e+07 2.01243e+07 2.01114e+07
          2.01243e+07 2.01114e+07 2.01243e+07 2.01114e+07 2.01243e+07 2.01114e+07 2.01243e+07 2.01114e+07 2.01243e+07 2.01114e+07 2.01243e+07 2.01114e+07