<?xml version="1.0"?>
<VTKFile type="UnstructuredGrid" version="0.1" byte_order="LittleEndian">
  <UnstructuredGrid>
    <Piece NumberOfCells="1000" NumberOfPoints="1111">
      <PointData Scalars="pressure_o">
        <DataArray type="Float32" Name="pressure_o" NumberOfComponents="1" format="ascii">
          3e+07 2.76054e+07 3e+07 2.75902e+07 2.54845e+07 2.54719e+07 2.37483e+07 2.37352e+07 2.24347e+07 2.24217e+07 2.15155e+07 2.15025e+07
          2.09167e+07 2.09037e+07 2.05483e+07 2.05354e+07 2.03319e+07 2.03189e+07 2.02095e+07 2.01965e+07 2.01435e+07 2.01305e+07 2.01218e+07 2.01089e+07
          2.01173e+07 2.01044e+07 2.01166e+07 2.01036e+07 2.01165e+07 2.01035e+07 2.01165e+07 2.01035e+07 2.01165e+07 2.01035e+07 2.01165e+07 2.01035e+07
          2.01165e+07 2.01035e+07 2.01165e+07 2.01035e+07 2.01165e+07 2.01035e+07 2.01165e+07 2.01035e+07 2.01165e+07 2.01035e+07 2.01165e+07 2.01035e+07
          2.01165e+07 2.01035e+07 2.01165e+07 2.01035e+07 2.01165e+07 2.01035e+07 2.01165e+07 2.01035e+07 2.01165e+07 2.01035e+07 2.01165e+07 2.01035e+07
          2.01165e+07 2.01035e+07 2.01165e+07 2.01035e+07 2.01165e+07 2.01035e+07 2.01165e+07 2.01035e+07 2.01165e+07 2.01035e+07 2.01165e+07 2.01035e+07
          2.01165e+07 2.01035e+07 2.01165e+07 2.01035e+07 2.01165e+07 2.01035e+07 2.01165e+07 2.01035e+07 2.01165e+07 2.01035e+07 2.01165e+07 2.01035e+07
          2.01165e+07 2.01035e+07 2.01165e+07 2.01035e+07 2.01165e+07 2.01035e+07 2.01162e+07 2.01032e+07 2.01143e+07 2.01014e+07 2.01038e+07 2.00909e+07
          2.00412e+07 2.00282e+07 1.9402e+07 1.93915e+07 1.34653e+07 1.34595e+07 1.9402e+07 1.93915e+07 2.00412e+07 2.00282e+07 2.01038e+07 2.00909e+07
          2.01143e+07 2.01014e+07 2.01162e+07 2.01032e+07 2.01165e+07 2.01035e+07 2.01165e+07 2.01035e+07 2.01165e+07 2.01035e+07 2.01165e+07 2.01035e+07
          2.01165e+07 2.01035e+07 2.01165e+07 2.01035e+07 2.01165e+07 2.01035e+07 2.01165e+07 2.01035e+07 2.01165e+07 2.01035e+07 2.01165e+07 2.01035e+07
          2.01165e+07 2.01035e+07 2.01165e+07 2.01035e+07 2.01165e+07 2.01035e+07 2.01165e+07 2.01035e+07 2.01165e+07 2.01035e+07 2.01165e+07 2.01035e+07
          2.01165e+07 2.01035e+07 2.01165e+07 2.01035e+07 2.01165e+07 2.01035e+07 2.01165e+07 2.01035e+07 2.01165e+07 2.01035e+07 2.01165e+07 2.01035e+07
          2.01165e+07 2.01035e+07 2.01165e+07 2.01035e+07 2.01165e+07 2.01035e+07 2.01165e+07 2.01035e+07 2.01165e+07 2.01035e+07 2.01165e+07 2.01035e+07
          2.01165e+07 2.01035e+07 2.01165e+07 2.01035e+07 2.01165e+07 2.01035e+07 2.01166e+07 2.01036e+07 2.01173e+07 2.01044e+07 2.01218e+07 2.01089e+07
          2.01435e+07 2.01305e+07 2.02095e+07 2.01965e+07 2.03319e+07 2.03189e+07 2.05483e+07 2.05354e+07 2.09167e+07 2.09037e+07 2.15155e+07 2.15025e+07
          2.24347e+07 2.24217e+07 2.37483e+07 2.37352e+07 2.54845e+07 2.54719e+07 2.76054e+07 2.75902e+07 3e+07 3e+07 3e+07 2.75749e+07
          2.54594e+07 2.37222e+07 2.24087e+07 2.14895e+07 2.08908e+07 2.05224e+07 2.0306e+07 2.01836e+07 2.01175e+07 2.00959e+07 2.00914e+07 2.00906e+07
          2.00906e+07 2.00906e+07 2.00906e+07 2.00906e+07 2.00906e+07 2.00906e+07 2.00906e+07 2.00906e+07 2.00906e+07 2.00906e+07 2.00906e+07 2.00906e+07
          2.00906e+07 2.00906e+07 2.00906e+07 2.00906e+07 2.00906e+07 2.00906e+07 2.00906e+07 2.00906e+07 2.00906e+07 2.00906e+07 2.00906e+07 2.00906e+07
          2.00906e+07 2.00906e+07 2.00906e+07 2.00906e+07 2.00906e+07 2.00906e+07 2.00905e+07 2.00903e+07 2.00884e+07 2.00779e+07 2.00158e+07 1.93825e+07
          1.34477e+07 1.93825e+07 2.00158e+07 2.00779e+07 2.00884e+07 2.00903e+07 2.00905e+07 2.00906e+07 2.00906e+07 2.00906e+07 2.00906e+07 2.00906e+07
          2.00906e+07 2.00906e+07 2.00906e+07 2.00906e+07 2.00906e+07 2.00906e+07 2.00906e+07 2.00906e+07 2.00906e+07 2.00906e+07 2.00906e+07 2.00906e+07
          2.00906e+07 2.00906e+07 2.00906e+07 2.00906e+07 2.00906e+07 2.00906e+07 2.00906e+07 2.00906e+07 2.00906e+07 2.00906e+07 2.00906e+07 2.00906e+07
          2.00906e+07 2.00906e+07 2.00914e+07 2.00959e+07 2.01175e+07 2.01836e+07 2.0306e+07 2.05224e+07 2.08908e+07 2.14895e+07 2.24087e+07 2.37222e+07
          2.54594e+07 2.75749e+07 3e+07 3e+07 2.75595e+07 2.54468e+07 2.37091e+07 2.23958e+07 2.14766e+07 2.08778e+07 2.05094e+07 2.0293e+07
          2.01706e+07 2.01044e+07 2.00829e+07 2.00784e+07 2.00777e+07 2.00776e+07 2.00776e+07 2.00776e+07 2.00776e+07 2.00776e+07 2.00776e+07 2.00776e+07
          2.00776e+07 2.00776e+07 2.00776e+07 2.00776e+07 2.00776e+07 2.00776e+07 2.00776e+07 2.00776e+07 2.00776e+07 2.00776e+07 2.00776e+07 2.00776e+07
          2.00776e+07 2.00776e+07 2.00776e+07 2.00776e+07 2.00776e+07 2.00776e+07 2.00776e+07 2.00776e+07 2.00776e+07 2.00776e+07 2.00776e+07 2.00775e+07
          2.00773e+07 2.00755e+07 2.00649e+07 2.00041e+07 1.93747e+07 1.34294e+07 1.93747e+07 2.00041e+07 2.00649e+07 2.00755e+07 2.00773e+07 2.00775e+07
          2.00776e+07 2.00776e+07 2.00776e+07 2.00776e+07 2.00776e+07 2.00776e+07 2.00776e+07 2.00776e+07 2.00776e+07 2.00776e+07 2.00776e+07 2.00776e+07
          2.00776e+07 2.00776e+07 2.00776e+07 2.00776e+07 2.00776e+07 2.00776e+07 2.00776e+07 2.00776e+07 2.00776e+07 2.00776e+07 2.00776e+07 2.00776e+07
          2.00776e+07 2.00776e+07 2.00776e+07 2.00776e+07 2.00776e+07 2.00776e+07 2.00777e+07 2.00784e+07 2.00829e+07 2.01044e+07 2.01706e+07 2.0293e+07
          2.05094e+07 2.08778e+07 2.14766e+07 2.23958e+07 2.37091e+07 2.54468e+07 2.75595e+07 3e+07 3e+07 2.75441e+07 2.54343e+07 2.36961e+07
          2.23828e+07 2.14636e+07 2.08648e+07 2.04964e+07 2.028e+07 2.01577e+07 2.00913e+07 2.00699e+07 2.00654e+07 2.00647e+07 2.00646e+07 2.00646e+07
          2.00646e+07 2.00646e+07 2.00646e+07 2.00646e+07 2.00646e+07 2.00646e+07 2.00646e+07 2.00646e+07 2.00646e+07 2.00646e+07 2.00646e+07 2.00646e+07
          2.00646e+07 2.00646e+07 2.00646e+07 2.00646e+07 2.00646e+07 2.00646e+07 2.00646e+07 2.00646e+07 2.00646e+07 2.00646e+07 2.00646e+07 2.00646e+07
          2.00646e+07 2.00646e+07 2.00646e+07 2.00646e+07 2.00646e+07 2.00643e+07 2.00625e+07 2.00518e+07 1.9993e+07 1.9368e+07 1.34045e+07 1.9368e+07
          1.9993e+07 2.00518e+07 2.00625e+07 2.00643e+07 2.00646e+07 2.00646e+07 2.00646e+07 2.00646e+07 2.00646e+07 2.00646e+07 2.00646e+07 2.00646e+07
          2.00646e+07 2.00646e+07 2.00646e+07 2.00646e+07 2.00646e+07 2.00646e+07 2.00646e+07 2.00646e+07 2.00646e+07 2.00646e+07 2.00646e+07 2.00646e+07
          2.00646e+07 2.00646e+07 2.00646e+07 2.00646e+07 2.00646e+07 2.00646e+07 2.00646e+07 2.00646e+07 2.00646e+07 2.00646e+07 2.00646e+07 2.00647e+07
          2.00654e+07 2.00699e+07 2.00913e+07 2.01577e+07 2.028e+07 2.04964e+07 2.08648e+07 2.14636e+07 2.23828e+07 2.36961e+07 2.54343e+07 2.75441e+07
          3e+07 2.99363e+07 2.75395e+07 2.54199e+07 2.36833e+07 2.23698e+07 2.14506e+07 2.08519e+07 2.04835e+07 2.02671e+07 2.01447e+07 2.00782e+07
          2.00568e+07 2.00525e+07 2.00517e+07 2.00516e+07 2.00516e+07 2.00516e+07 2.00516e+07 2.00516e+07 2.00516e+07 2.00516e+07 2.00516e+07 2.00516e+07
          2.00516e+07 2.00516e+07 2.00516e+07 2.00516e+07 2.00516e+07 2.00516e+07 2.00516e+07 2.00516e+07 2.00516e+07 2.00516e+07 2.00516e+07 2.00516e+07
          2.00516e+07 2.00516e+07 2.00516e+07 2.00516e+07 2.00516e+07 2.00516e+07 2.00516e+07 2.00516e+07 2.00516e+07 2.00516e+07 2.00514e+07 2.00496e+07
          2.00389e+07 1.99819e+07 1.93625e+07 1.33726e+07 1.93625e+07 1.99819e+07 2.00389e+07 2.00496e+07 2.00514e+07 2.00516e+07 2.00516e+07 2.00516e+07
          2.00516e+07 2.00516e+07 2.00516e+07 2.00516e+07 2.00516e+07 2.00516e+07 2.00516e+07 2.00516e+07 2.00516e+07 2.00516e+07 2.00516e+07 2.00516e+07
          2.00516e+07 2.00516e+07 2.00516e+07 2.00516e+07 2.00516e+07 2.00516e+07 2.00516e+07 2.00516e+07 2.00516e+07 2.00516e+07 2.00516e+07 2.00516e+07
          2.00516e+07 2.00516e+07 2.00516e+07 2.00516e+07 2.00517e+07 2.00525e+07 2.00568e+07 2.00782e+07 2.01447e+07 2.02671e+07 2.04835e+07 2.08519e+07
          2.14506e+07 2.23698e+07 2.36833e+07 2.54199e+07 2.75395e+07 2.99363e+07 2.98901e+07 2.75319e+07 2.54061e+07 2.36705e+07 2.23568e+07 2.14376e+07
          2.08389e+07 2.04705e+07 2.02541e+07 2.01318e+07 2.0065e+07 2.00438e+07 2.00395e+07 2.00388e+07 2.00387e+07 2.00387e+07 2.00387e+07 2.00387e+07
          2.00387e+07 2.00387e+07 2.00387e+07 2.00387e+07 2.00387e+07 2.00387e+07 2.00387e+07 2.00387e+07 2.00387e+07 2.00387e+07 2.00387e+07 2.00387e+07
          2.00387e+07 2.00387e+07 2.00387e+07 2.00387e+07 2.00387e+07 2.00387e+07 2.00387e+07 2.00387e+07 2.00387e+07 2.00387e+07 2.00387e+07 2.00387e+07
          2.00387e+07 2.00387e+07 2.00386e+07 2.00384e+07 2.00367e+07 2.00261e+07 1.99701e+07 1.93585e+07 1.33333e+07 1.93585e+07 1.99701e+07 2.00261e+07
          2.00367e+07 2.00384e+07 2.00386e+07 2.00387e+07 2.00387e+07 2.00387e+07 2.00387e+07 2.00387e+07 2.00387e+07 2.00387e+07 2.00387e+07 2.00387e+07
          2.00387e+07 2.00387e+07 2.00387e+07 2.00387e+07 2.00387e+07 2.00387e+07 2.00387e+07 2.00387e+07 2.00387e+07 2.00387e+07 2.00387e+07 2.00387e+07
          2.00387e+07 2.00387e+07 2.00387e+07 2.00387e+07 2.00387e+07 2.00387e+07 2.00387e+07 2.00387e+07 2.00387e+07 2.00388e+07 2.00395e+07 2.00438e+07
          2.0065e+07 2.01318e+07 2.02541e+07 2.04705e+07 2.08389e+07 2.14376e+07 2.23568e+07 2.36705e+07 2.54061e+07 2.75319e+07 2.98901e+07 2.98518e+07
          2.75229e+07 2.53925e+07 2.36576e+07 2.23438e+07 2.14247e+07 2.08259e+07 2.04575e+07 2.02411e+07 2.01188e+07 2.00518e+07 2.00307e+07 2.00265e+07
          2.00258e+07 2.00257e+07 2.00257e+07 2.00257e+07 2.00257e+07 2.00257e+07 2.00257e+07 2.00257e+07 2.00257e+07 2.00257e+07 2.00257e+07 2.00257e+07
          2.00257e+07 2.00257e+07 2.00257e+07 2.00257e+07 2.00257e+07 2.00257e+07 2.00257e+07 2.00257e+07 2.00257e+07 2.00257e+07 2.00257e+07 2.00257e+07
          2.00257e+07 2.00257e+07 2.00257e+07 2.00257e+07 2.00257e+07 2.00257e+07 2.00257e+07 2.00257e+07 2.00254e+07 2.00238e+07 2.00132e+07 1.9959e+07
          1.93478e+07 1.33333e+07 1.93478e+07 1.9959e+07 2.00132e+07 2.00238e+07 2.00254e+07 2.00257e+07 2.00257e+07 2.00257e+07 2.00257e+07 2.00257e+07
          2.00257e+07 2.00257e+07 2.00257e+07 2.00257e+07 2.00257e+07 2.00257e+07 2.00257e+07 2.00257e+07 2.00257e+07 2.00257e+07 2.00257e+07 2.00257e+07
          2.00257e+07 2.00257e+07 2.00257e+07 2.00257e+07 2.00257e+07 2.00257e+07 2.00257e+07 2.00257e+07 2.00257e+07 2.00257e+07 2.00257e+07 2.00257e+07
          2.00257e+07 2.00257e+07 2.00258e+07 2.00265e+07 2.00307e+07 2.00518e+07 2.01188e+07 2.02411e+07 2.04575e+07 2.08259e+07 2.14247e+07 2.23438e+07
          2.36576e+07 2.53925e+07 2.75229e+07 2.98518e+07 2.98208e+07 2.75127e+07 2.53791e+07 2.36447e+07 2.23308e+07 2.14117e+07 2.08129e+07 2.04446e+07
          2.02281e+07 2.01059e+07 2.00385e+07 2.00177e+07 2.00135e+07 2.00128e+07 2.00127e+07 2.00127e+07 2.00127e+07 2.00127e+07 2.00127e+07 2.00127e+07
          2.00127e+07 2.00127e+07 2.00127e+07 2.00127e+07 2.00127e+07 2.00127e+07 2.00127e+07 2.00127e+07 2.00127e+07 2.00127e+07 2.00127e+07 2.00127e+07
          2.00127e+07 2.00127e+07 2.00127e+07 2.00127e+07 2.00127e+07 2.00127e+07 2.00127e+07 2.00127e+07 2.00127e+07 2.00127e+07 2.00127e+07 2.00127e+07
          2.00127e+07 2.00125e+07 2.00109e+07 2.00005e+07 1.99475e+07 1.93372e+07 1.33333e+07 1.93372e+07 1.99475e+07 2.00005e+07 2.00109e+07 2.00125e+07
          2.00127e+07 2.00127e+07 2.00127e+07 2.00127e+07 2.00127e+07 2.00127e+07 2.00127e+07 2.00127e+07 2.00127e+07 2.00127e+07 2.00127e+07 2.00127e+07
          2.00127e+07 2.00127e+07 2.00127e+07 2.00127e+07 2.00127e+07 2.00127e+07 2.00127e+07 2.00127e+07 2.00127e+07 2.00127e+07 2.00127e+07 2.00127e+07
          2.00127e+07 2.00127e+07 2.00127e+07 2.00127e+07 2.00127e+07 2.00127e+07 2.00127e+07 2.00128e+07 2.00135e+07 2.00177e+07 2.00385e+07 2.01059e+07
          2.02281e+07 2.04446e+07 2.08129e+07 2.14117e+07 2.23308e+07 2.36447e+07 2.53791e+07 2.75127e+07 2.98208e+07 2.9797e+07 2.75014e+07 2.53659e+07
          2.36317e+07 2.23178e+07 2.13987e+07 2.08e+07 2.04316e+07 2.02152e+07 2.0093e+07 2.00252e+07 2.00046e+07 2.00005e+07 1.99998e+07 1.99998e+07
          1.99998e+07 1.99998e+07 1.99998e+07 1.99998e+07 1.99998e+07 1.99998e+07 1.99998e+07 1.99998e+07 1.99998e+07 1.99998e+07 1.99998e+07 1.99998e+07
          1.99998e+07 1.99998e+07 1.99998e+07 1.99998e+07 1.99998e+07 1.99998e+07 1.99998e+07 1.99998e+07 1.99998e+07 1.99998e+07 1.99998e+07 1.99998e+07
          1.99998e+07 1.99998e+07 1.99998e+07 1.99998e+07 1.99998e+07 1.99997e+07 1.99995e+07 1.99979e+07 1.99879e+07 1.99356e+07 1.93265e+07 1.33333e+07
          1.93265e+07 1.99356e+07 1.99879e+07 1.99979e+07 1.99995e+07 1.99997e+07 1.99998e+07 1.99998e+07 1.99998e+07 1.99998e+07 1.99998e+07 1.99998e+07
          1.99998e+07 1.99998e+07 1.99998e+07 1.99998e+07 1.99998e+07 1.99998e+07 1.99998e+07 1.99998e+07 1.99998e+07 1.99998e+07 1.99998e+07 1.99998e+07
          1.99998e+07 1.99998e+07 1.99998e+07 1.99998e+07 1.99998e+07 1.99998e+07 1.99998e+07 1.99998e+07 1.99998e+07 1.99998e+07 1.99998e+07 1.99998e+07
          1.99998e+07 2.00005e+07 2.00046e+07 2.00252e+07 2.0093e+07 2.02152e+07 2.04316e+07 2.08e+07 2.13987e+07 2.23178e+07 2.36317e+07 2.53659e+07
          2.75014e+07 2.9797e+07 2.97804e+07 2.7489e+07 2.53528e+07 2.36188e+07 2.23049e+07 2.13858e+07 2.0787e+07 2.04186e+07 2.02022e+07 2.00801e+07
          2.00119e+07 1.99915e+07 1.99875e+07 1.99869e+07 1.99868e+07 1.99868e+07 1.99868e+07 1.99868e+07 1.99868e+07 1.99868e+07 1.99868e+07 1.99868e+07
          1.99868e+07 1.99868e+07 1.99868e+07 1.99868e+07 1.99868e+07 1.99868e+07 1.99868e+07 1.99868e+07 1.99868e+07 1.99868e+07 1.99868e+07 1.99868e+07
          1.99868e+07 1.99868e+07 1.99868e+07 1.99868e+07 1.99868e+07 1.99868e+07 1.99868e+07 1.99868e+07 1.99868e+07 1.99868e+07 1.99868e+07 1.99865e+07
          1.9985e+07 1.99751e+07 1.99234e+07 1.9316e+07 1.33333e+07 1.9316e+07 1.99234e+07 1.99751e+07 1.9985e+07 1.99865e+07 1.99868e+07 1.99868e+07
          1.99868e+07 1.99868e+07 1.99868e+07 1.99868e+07 1.99868e+07 1.99868e+07 1.99868e+07 1.99868e+07 1.99868e+07 1.99868e+07 1.99868e+07 1.99868e+07
          1.99868e+07 1.99868e+07 1.99868e+07 1.99868e+07 1.99868e+07 1.99868e+07 1.99868e+07 1.99868e+07 1.99868e+07 1.99868e+07 1.99868e+07 1.99868e+07
          1.99868e+07 1.99868e+07 1.99868e+07 1.99868e+07 1.99868e+07 1.99869e+07 1.99875e+07 1.99915e+07 2.00119e+07 2.00801e+07 2.02022e+07 2.04186e+07
          2.0787e+07 2.13858e+07 2.23049e+07 2.36188e+07 2.53528e+07 2.7489e+07 2.97804e+07
        </DataArray>
        <DataArray type="Float32" Name="pressure_w" NumberOfComponents="1" format="ascii">
          3e+07 2.76054e+07 3e+07 2.75902e+07 2.54845e+07 2.54719e+07 2.37483e+07 2.37352e+07 2.24347e+07 2.24217e+07 2.15155e+07 2.15025e+07
          2.09167e+07 2.09037e+07 2.05483e+07 2.05354e+07 2.03319e+07 2.03189e+07 2.02095e+07 2.01965e+07 2.01435e+07 2.01305e+07 2.01218e+07 2.01089e+07
          2.01173e+07 2.01044e+07 2.01166e+07 2.01036e+07 2.01165e+07 2.01035e+07 2.01165e+07 2.01035e+07 2.01165e+07 2.01035e+07 2.01165e+07 2.01035e+07
          2.01165e+07 2.01035e+07 2.01165e+07 2.01035e+07 2.01165e+07 2.01035e+07 2.01165e+07 2.01035e+07 2.01165e+07 2.01035e+07 2.01165e+07 2.01035e+07
          2.01165e+07 2.01035e+07 2.01165e+07 2.01035e+07 2.01165e+07 2.01035e+07 2.01165e+07 2.01035e+07 2.01165e+07 2.01035e+07 2.01165e+07 2.01035e+07
          2.01165e+07 2.01035e+07 2.01165e+07 2.01035e+07 2.01165e+07 2.01035e+07 2.01165e+07 2.01035e+07 2.01165e+07 2.01035e+07 2.01165e+07 2.01035e+07
          2.01165e+07 2.01035e+07 2.01165e+07 2.01035e+07 2.01165e+07 2.01035e+07 2.01165e+07 2.01035e+07 2.01165e+07 2.01035e+07 2.01165e+07 2.01035e+07
          2.01165e+07 2.01035e+07 2.01165e+07 2.01035e+07 2.01165e+07 2.01035e+07 2.01162e+07 2.01032e+07 2.01143e+07 2.01014e+07 2.01038e+07 2.00909e+07
          2.00412e+07 2.00282e+07 1.9402e+07 1.93915e+07 1.34653e+07 1.34595e+07 1.9402e+07 1.93915e+07 2.00412e+07 2.00282e+07 2.01038e+07 2.00909e+07
          2.01143e+07 2.01014e+07 2.01162e+07 2.01032e+07 2.01165e+07 2.01035e+07 2.01165e+07 2.01035e+07 2.01165e+07 2.01035e+07 2.01165e+07 2.01035e+07
          2.01165e+07 2.01035e+07 2.01165e+07 2.01035e+07 2.01165e+07 2.01035e+07 2.01165e+07 2.01035e+07 2.01165e+07 2.01035e+07 2.01165e+07 2.01035e+07
          2.01165e+07 2.01035e+07 2.01165e+07 2.01035e+07 2.01165e+07 2.01035e+07 2.01165e+07 2.01035e+07 2.01165e+07 2.01035e+07 2.01165e+07 2.01035e+07
          2.01165e+07 2.01035e+07 2.01165e+07 2.01035e+07 2.01165e+07 2.01035e+07 2.01165e+07 2.01035e+07 2.01165e+07 2.01035e+07 2.01165e+07 2.01035e+07
          2.01165e+07 2.01035e+07 2.01165e+07 2.01035e+07 2.01165e+07 2.01035e+07 2.01165e+07 2.01035e+07 2.01165e+07 2.01035e+07 2.01165e+07 2.01035e+07
          2.01165e+07 2.01035e+07 2.01165e+07 2.01035e+07 2.01165e+07 2.01035e+07 2.01166e+07 2.01036e+07 2.01173e+07 2.01044e+07 2.01218e+07 2.01089e+07
          2.01435e+07 2.01305e+07 2.02095e+07 2.01965e+07 2.03319e+07 2.03189e+07 2.05483e+07 2.05354e+07 2.09167e+07 2.09037e+07 2.15155e+07 2.15025e+07
          2.24347e+07 2.24217e+07 2.37483e+07 2.37352e+07 2.54845e+07 2.54719e+07 2.76054e+07 2.75902e+07 3e+07 3e+07 3e+07 2.75749e+07
          2.54594e+07 2.37222e+07 2.24087e+07 2.14895e+07 2.08908e+07 2.05224e+07 2.0306e+07 2.01836e+07 2.01175e+07 2.00959e+07 2.00914e+07 2.00906e+07
          2.00906e+07 2.00906e+07 2.00906e+07 2.00906e+07 2.00906e+07 2.00906e+07 2.00906e+07 2.00906e+07 2.00906e+07 2.00906e+07 2.00906e+07 2.00906e+07
          2.00906e+07 2.00906e+07 2.00906e+07 2.00906e+07 2.00906e+07 2.00906e+07 2.00906e+07 2.00906e+07 2.00906e+07 2.00906e+07 2.00906e+07 2.00906e+07
          2.00906e+07 2.00906e+07 2.00906e+07 2.00906e+07 2.00906e+07 2.00906e+07 2.00905e+07 2.00903e+07 2.00884e+07 2.00779e+07 2.00158e+07 1.93825e+07
          1.34477e+07 1.93825e+07 2.00158e+07 2.00779e+07 2.00884e+07 2.00903e+07 2.00905e+07 2.00906e+07 2.00906e+07 2.00906e+07 2.00906e+07 2.00906e+07
          2.00906e+07 2.00906e+07 2.00906e+07 2.00906e+07 2.00906e+07 2.00906e+07 2.00906e+07 2.00906e+07 2.00906e+07 2.00906e+07 2.00906e+07 2.00906e+07
          2.00906e+07 2.00906e+07 2.00906e+07 2.00906e+07 2.00906e+07 2.00906e+07 2.00906e+07 2.00906e+07 2.00906e+07 2.00906e+07 2.00906e+07 2.00906e+07
          2.00906e+07 2.00906e+07 2.00914e+07 2.00959e+07 2.01175e+07 2.01836e+07 2.0306e+07 2.05224e+07 2.08908e+07 2.14895e+07 2.24087e+07 2.37222e+07
          2.54594e+07 2.75749e+07 3e+07 3e+07 2.75595e+07 2.54468e+07 2.37091e+07 2.23958e+07 2.14766e+07 2.08778e+07 2.05094e+07 2.0293e+07
          2.01706e+07 2.01044e+07 2.00829e+07 2.00784e+07 2.00777e+07 2.00776e+07 2.00776e+07 2.00776e+07 2.00776e+07 2.00776e+07 2.00776e+07 2.00776e+07
          2.00776e+07 2.00776e+07 2.00776e+07 2.00776e+07 2.00776e+07 2.00776e+07 2.00776e+07 2.00776e+07 2.00776e+07 2.00776e+07 2.00776e+07 2.00776e+07
          2.00776e+07 2.00776e+07 2.00776e+07 2.00776e+07 2.00776e+07 2.00776e+07 2.00776e+07 2.00776e+07 2.00776e+07 2.00776e+07 2.00776e+07 2.00775e+07
          2.00773e+07 2.00755e+07 2.00649e+07 2.00041e+07 1.93747e+07 1.34294e+07 1.93747e+07 2.00041e+07 2.00649e+07 2.00755e+07 2.00773e+07 2.00775e+07
          2.00776e+07 2.00776e+07 2.00776e+07 2.00776e+07 2.00776e+07 2.00776e+07 2.00776e+07 2.00776e+07 2.00776e+07 2.00776e+07 2.00776e+07 2.00776e+07
          2.00776e+07 2.00776e+07 2.00776e+07 2.00776e+07 2.00776e+07 2.00776e+07 2.00776e+07 2.00776e+07 2.00776e+07 2.00776e+07 2.00776e+07 2.00776e+07
          2.00776e+07 2.00776e+07 2.00776e+07 2.00776e+07 2.00776e+07 2.00776e+07 2.00777e+07 2.00784e+07 2.00829e+07 2.01044e+07 2.01706e+07 2.0293e+07
          2.05094e+07 2.08778e+07 2.14766e+07 2.23958e+07 2.37091e+07 2.54468e+07 2.75595e+07 3e+07 3e+07 2.75441e+07 2.54343e+07 2.36961e+07
          2.23828e+07 2.14636e+07 2.08648e+07 2.04964e+07 2.028e+07 2.01577e+07 2.00913e+07 2.00699e+07 2.00654e+07 2.00647e+07 2.00646e+07 2.00646e+07
          2.00646e+07 2.00646e+07 2.00646e+07 2.00646e+07 2.00646e+07 2.00646e+07 2.00646e+07 2.00646e+07 2.00646e+07 2.00646e+07 2.00646e+07 2.00646e+07
          2.00646e+07 2.00646e+07 2.00646e+07 2.00646e+07 2.00646e+07 2.00646e+07 2.00646e+07 2.00646e+07 2.00646e+07 2.00646e+07 2.00646e+07 2.00646e+07
          2.00646e+07 2.00646e+07 2.00646e+07 2.00646e+07 2.00646e+07 2.00643e+07 2.00625e+07 2.00518e+07 1.9993e+07 1.9368e+07 1.34045e+07 1.9368e+07
          1.9993e+07 2.00518e+07 2.00625e+07 2.00643e+07 2.00646e+07 2.00646e+07 2.00646e+07 2.00646e+07 2.00646e+07 2.00646e+07 2.00646e+07 2.00646e+07
          2.00646e+07 2.00646e+07 2.00646e+07 2.00646e+07 2.00646e+07 2.00646e+07 2.00646e+07 2.00646e+07 2.00646e+07 2.00646e+07 2.00646e+07 2.00646e+07
          2.00646e+07 2.00646e+07 2.00646e+07 2.00646e+07 2.00646e+07 2.00646e+07 2.00646e+07 2.00646e+07 2.00646e+07 2.00646e+07 2.00646e+07 2.00647e+07
          2.00654e+07 2.00699e+07 2.00913e+07 2.01577e+07 2.028e+07 2.04964e+07 2.08648e+07 2.14636e+07 2.23828e+07 2.36961e+07 2.54343e+07 2.75441e+07
          3e+07 2.99363e+07 2.75395e+07 2.54199e+07 2.36833e+07 2.23698e+07 2.14506e+07 2.08519e+07 2.04835e+07 2.02671e+07 2.01447e+07 2.00782e+07
          2.00568e+07 2.00525e+07 2.00517e+07 2.00516e+07 2.00516e+07 2.00516e+07 2.00516e+07 2.00516e+07 2.00516e+07 2.00516e+07 2.00516e+07 2.00516e+07
          2.00516e+07 2.00516e+07 2.00516e+07 2.00516e+07 2.00516e+07 2.00516e+07 2.00516e+07 2.00516e+07 2.00516e+07 2.00516e+07 2.00516e+07 2.00516e+07
          2.00516e+07 2.00516e+07 2.00516e+07 2.00516e+07 2.00516e+07 2.00516e+07 2.00516e+07 2.00516e+07 2.00516e+07 2.00516e+07 2.00514e+07 2.00496e+07
          2.00389e+07 1.99819e+07 1.93625e+07 1.33726e+07 1.93625e+07 1.99819e+07 2.00389e+07 2.00496e+07 2.00514e+07 2.00516e+07 2.00516e+07 2.00516e+07
          2.00516e+07 2.00516e+07 2.00516e+07 2.00516e+07 2.00516e+07 2.00516e+07 2.00516e+07 2.00516e+07 2.00516e+07 2.00516e+07 2.00516e+07 2.00516e+07
          2.00516e+07 2.00516e+07 2.00516e+07 2.00516e+07 2.00516e+07 2.00516e+07 2.00516e+07 2.00516e+07 2.00516e+07 2.00516e+07 2.00516e+07 2.00516e+07
          2.00516e+07 2.00516e+07 2.00516e+07 2.00516e+07 2.00517e+07 2.00525e+07 2.00568e+07 2.00782e+07 2.01447e+07 2.02671e+07 2.04835e+07 2.08519e+07
          2.14506e+07 2.23698e+07 2.36833e+07 2.54199e+07 2.75395e+07 2.99363e+07 2.98901e+07 2.75319e+07 2.54061e+07 2.36705e+07 2.23568e+07 2.14376e+07
          2.08389e+07 2.04705e+07 2.02541e+07 2.01318e+07 2.0065e+07 2.00438e+07 2.00395e+07 2.00388e+07 2.00387e+07 2.00387e+07 2.00387e+07 2.00387e+07
          2.00387e+07 2.00387e+07 2.00387e+07 2.00387e+07 2.00387e+07 2.00387e+07 2.00387e+07 2.00387e+07 2.00387e+07 2.00387e+07 2.00387e+07 2.00387e+07
          2.00387e+07 2.00387e+07 2.00387e+07 2.00387e+07 2.00387e+07 2.00387e+07 2.00387e+07 2.00387e+07 2.00387e+07 2.00387e+07 2.00387e+07 2.00387e+07
          2.00387e+07 2.00387e+07 2.00386e+07 2.00384e+07 2.00367e+07 2.00261e+07 1.99701e+07 1.93585e+07 1.33333e+07 1.93585e+07 1.99701e+07 2.00261e+07
          2.00367e+07 2.00384e+07 2.00386e+07 2.00387e+07 2.00387e+07 2.00387e+07 2.00387e+07 2.00387e+07 2.00387e+07 2.00387e+07 2.00387e+07 2.00387e+07
          2.00387e+07 2.00387e+07 2.00387e+07 2.00387e+07 2.00387e+07 2.00387e+07 2.00387e+07 2.00387e+07 2.00387e+07 2.00387e+07 2.00387e+07 2.00387e+07
          2.00387e+07 2.00387e+07 2.00387e+07 2.00387e+07 2.00387e+07 2.00387e+07 2.00387e+07 2.00387e+07 2.00387e+07 2.00388e+07 2.00395e+07 2.00438e+07
          2.0065e+07 2.01318e+07 2.02541e+07 2.04705e+07 2.08389e+07 2.14376e+07 2.23568e+07 2.36705e+07 2.54061e+07 2.75319e+07 2.98901e+07 2.98518e+07
          2.75229e+07 2.53925e+07 2.36576e+07 2.23438e+07 2.14247e+07 2.08259e+07 2.04575e+07 2.02411e+07 2.01188e+07 2.00518e+07 2.00307e+07 2.00265e+07
          2.00258e+07 2.00257e+07 2.00257e+07 2.00257e+07 2.00257e+07 2.00257e+07 2.00257e+07 2.00257e+07 2.00257e+07 2.00257e+07 2.00257e+07 2.00257e+07
          2.00257e+07 2.00257e+07 2.00257e+07 2.00257e+07 2.00257e+07 2.00257e+07 2.00257e+07 2.00257e+07 2.00257e+07 2.00257e+07 2.00257e+07 2.00257e+07
          2.00257e+07 2.00257e+07 2.00257e+07 2.00257e+07 2.00257e+07 2.00257e+07 2.00257e+07 2.00257e+07 2.00254e+07 2.00238e+07 2.00132e+07 1.9959e+07
          1.93478e+07 1.33333e+07 1.93478e+07 1.9959e+07 2.00132e+07 2.00238e+07 2.00254e+07 2.00257e+07 2.00257e+07 2.00257e+07 2.00257e+07 2.00257e+07
          2.00257e+07 2.00257e+07 2.00257e+07 2.00257e+07 2.00257e+07 2.00257e+07 2.00257e+07 2.00257e+07 2.00257e+07 2.00257e+07 2.00257e+07 2.00257e+07
          2.00257e+07 2.00257e+07 2.00257e+07 2.00257e+07 2.00257e+07 2.00257e+07 2.00257e+07 2.00257e+07 2.00257e+07 2.00257e+07 2.00257e+07 2.00257e+07
          2.00257e+07 2.00257e+07 2.00258e+07 2.00265e+07 2.00307e+07 2.00518e+07 2.01188e+07 2.02411e+07 2.04575e+07 2.08259e+07 2.14247e+07 2.23438e+07
          2.36576e+07 2.53925e+07 2.75229e+07 2.98518e+07 2.98208e+07 2.75127e+07 2.53791e+07 2.36447e+07 2.23308e+07 2.14117e+07 2.08129e+07 2.04446e+07
          2.02281e+07 2.01059e+07 2.00385e+07 2.00177e+07 2.00135e+07 2.00128e+07 2.00127e+07 2.00127e+07 2.00127e+07 2.00127e+07 2.00127e+07 2.00127e+07
          2.00127e+07 2.00127e+07 2.00127e+07 2.00127e+07 2.00127e+07 2.00127e+07 2.00127e+07 2.00127e+07 2.00127e+07 2.00127e+07 2.00127e+07 2.00127e+07
          2.00127e+07 2.00127e+07 2.00127e+07 2.00127e+07 2.00127e+07 2.00127e+07 2.00127e+07 2.00127e+07 2.00127e+07 2.00127e+07 2.00127e+07 2.00127e+07
          2.00127e+07 2.00125e+07 2.00109e+07 2.00005e+07 1.99475e+07 1.93372e+07 1.33333e+07 1.93372e+07 1.99475e+07 2.00005e+07 2.00109e+07 2.00125e+07
          2.00127e+07 2.00127e+07 2.00127e+07 2.00127e+07 2.00127e+07 2.00127e+07 2.00127e+07 2.00127e+07 2.00127e+07 2.00127e+07 2.00127e+07 2.00127e+07
          2.00127e+07 2.00127e+07 2.00127e+07 2.00127e+07 2.00127e+07 2.00127e+07 2.00127e+07 2.00127e+07 2.00127e+07 2.00127e+07 2.00127e+07 2.00127e+07
          2.00127e+07 2.00127e+07 2.00127e+07 2.00127e+07 2.00127e+07 2.00127e+07 2.00127e+07 2.00128e+07 2.00135e+07 2.00177e+07 2.00385e+07 2.01059e+07
          2.02281e+07 2.04446e+07 2.08129e+07 2.14117e+07 2.23308e+07 2.36447e+07 2.53791e+07 2.75127e+07 2.98208e+07 2.9797e+07 2.75014e+07 2.53659e+07
          2.36317e+07 2.23178e+07 2.13987e+07 2.08e+07 2.04316e+07 2.02152e+07 2.0093e+07 2.00252e+07 2.00046e+07 2.00005e+07 1.99998e+07 1.99998e+07
          1.99998e+07 1.99998e+07 1.99998e+07 1.99998e+07 1.99998e+07 1.99998e+07 1.99998e+07 1.99998e+07 1.99998e+07 1.99998e+07 1.99998e+07 1.99998e+07
          1.99998e+07 1.99998e+07 1.99998e+07 1.99998e+07 1.99998e+07 1.99998e+07 1.99998e+07 1.99998e+07 1.99998e+07 1.99998e+07 1.99998e+07 1.99998e+07
          1.99998e+07 1.99998e+07 1.99998e+07 1.99998e+07 1.99998e+07 1.99997e+07 1.99995e+07 1.99979e+07 1.99879e+07 1.99356e+07 1.93265e+07 1.33333e+07
          1.93265e+07 1.99356e+07 1.99879e+07 1.99979e+07 1.99995e+07 1.99997e+07 1.99998e+07 1.99998e+07 1.99998e+07 1.99998e+07 1.99998e+07 1.99998e+07
          1.99998e+07 1.99998e+07 1.99998e+07 1.99998e+07 1.99998e+07 1.99998e+07 1.99998e+07 1.99998e+07 1.99998e+07 1.99998e+07 1.99998e+07 1.99998e+07
          1.99998e+07 1.99998e+07 1.99998e+07 1.99998e+07 1.99998e+07 1.99998e+07 1.99998e+07 1.99998e+07 1.99998e+07 1.99998e+07 1.99998e+07 1.99998e+07
          1.99998e+07 2.00005e+07 2.00046e+07 2.00252e+07 2.0093e+07 2.02152e+07 2.04316e+07 2.08e+07 2.13987e+07 2.23178e+07 2.36317e+07 2.53659e+07
          2.75014e+07 2.9797e+07 2.97804e+07 2.7489e+07 2.53528e+07 2.36188e+07 2.23049e+07 2.13858e+07 2.0787e+07 2.04186e+07 2.02022e+07 2.00801e+07
          2.00119e+07 1.99915e+07 1.99875e+07 1.99869e+07 1.99868e+07 1.99868e+07 1.99868e+07 1.99868e+07 1.99868e+07 1.99868e+07 1.99868e+07 1.99868e+07
          1.99868e+07 1.99868e+07 1.99868e+07 1.99868e+07 1.99868e+07 1.99868e+07 1.99868e+07 1.99868e+07 1.99868e+07 1.99868e+07 1.99868e+07 1.99868e+07
          1.99868e+07 1.99868e+07 1.99868e+07 1.99868e+07 1.99868e+07 1.99868e+07 1.99868e+07 1.99868e+07 1.99868e+07 1.99868e+07 1.99868e+07 1.99865e+07
          1.9985e+07 1.99751e+07 1.99234e+07 1.9316e+07 1.33333e+07 1.9316e+07 1.99234e+07 1.99751e+07 1.9985e+07 1.99865e+07 1.99868e+07 1.99868e+07
          1.99868e+07 1.99868e+07 1.99868e+07 1.99868e+07 1.99868e+07 1.99868e+07 1.99868e+07 1.99868e+07 1.99868e+07 1.99868e+07 1.99868e+07 1.99868e+07
          1.99868e+07 1.99868e+07 1.99868e+07 1.99868e+07 1.99868e+07 1.99868e+07 1.99868e+07 1.99868e+07 1.99868e+07 1.99868e+07 1.99868e+07 1.99868e+07
          1.99868e+07 1.99868e+07 1.99868e+07 1.99868e+07 1.99868e+07 1.99869e+07 1.99875e+07 1.99915e+07 2.00119e+07 2.00801e+07 2.02022e+07 2.04186e+07
          2.0787e+07 2.13858e+07 2.23049e+07 2.36188e+07 2.53528e+07 2.7489e+07 2.97804e+07
        </DataArray>
        <DataArray type="Float32" Name="pressure_g" NumberOfComponents="1" format="ascii">
          3e+07 2.76054e+07 3e+07 2.75902e+07 2.54845e+07 2.54719e+07 2.37483e+07 2.37352e+07 2.24347e+07 2.24217e+07 2.15155e+07 2.15025e+07
          2.09167e+07 2.09037e+07 2.05483e+07 2.05354e+07 2.03319e+07 2.03189e+07 2.02095e+07 2.01965e+07 2.01435e+07 2.01305e+07 2.01218e+07 2.01089e+07
          2.01173e+07 2.01044e+07 2.01166e+07 2.01036e+07 2.01165e+07 2.01035e+07 2.01165e+07 2.01035e+07 2.01165e+07 2.01035e+07 2.01165e+07 2.01035e+07
          2.01165e+07 2.01035e+07 2.01165e+07 2.01035e+07 2.01165e+07 2.01035e+07 2.01165e+07 2.01035e+07 2.01165e+07 2.01035e+07 2.01165e+07 2.01035e+07
          2.01165e+07 2.01035e+07 2.01165e+07 2.01035e+07 2.01165e+07 2.01035e+07 2.01165e+07 2.01035e+07 2.01165e+07 2.01035e+07 2.01165e+07 2.01035e+07
          2.01165e+07 2.01035e+07 2.01165e+07 2.01035e+07 2.01165e+07 2.01035e+07 2.01165e+07 2.01035e+07 2.01165e+07 2.01035e+07 2.01165e+07 2.01035e+07
          2.01165e+07 2.01035e+07 2.01165e+07 2.01035e+07 2.01165e+07 2.01035e+07 2.01165e+07 2.01035e+07 2.01165e+07 2.01035e+07 2.01165e+07 2.01035e+07