<?xml version="1.0"?>
<VTKFile type="UnstructuredGrid" version="0.1" byte_order="LittleEndian">
  <UnstructuredGrid>
    <Piece NumberOfCells="1000" NumberOfPoints="1111">
      <PointData Scalars="pressure_o">
        <DataArray type="Float32" Name="pressure_o" NumberOfComponents="1" format="ascii">
          3e+07 2.76068e+07 3e+07 2.75916e+07 2.54861e+07 2.54736e+07 2.37492e+07 2.37361e+07 2.24346e+07 2.24217e+07 2.15148e+07 2.15019e+07
          2.09158e+07 2.09029e+07 2.05474e+07 2.05345e+07 2.03312e+07 2.03182e+07 2.02094e+07 2.01965e+07 2.01443e+07 2.01313e+07 2.0122e+07 2.0109e+07
          2.01173e+07 2.01044e+07 2.01166e+07 2.01036e+07 2.01165e+07 2.01035e+07 2.01165e+07 2.01035e+07 2.01165e+07 2.01035e+07 2.01165e+07 2.01035e+07
          2.01165e+07 2.01035e+07 2.01165e+07 2.01035e+07 2.01165e+07 2.01035e+07 2.01165e+07 2.01035e+07 2.01165e+07 2.01035e+07 2.01165e+07 2.01035e+07
          2.01165e+07 2.01035e+07 2.01165e+07 2.01035e+07 2.01165e+07 2.01035e+07 2.01165e+07 2.01035e+07 2.01165e+07 2.01035e+07 2.01165e+07 2.01035e+07
          2.01165e+07 2.01035e+07 2.01165e+07 2.01035e+07 2.01165e+07 2.01035e+07 2.01165e+07 2.01035e+07 2.01165e+07 2.01035e+07 2.01165e+07 2.01035e+07
          2.01165e+07 2.01035e+07 2.01165e+07 2.01035e+07 2.01165e+07 2.01035e+07 2.01165e+07 2.01035e+07 2.01165e+07 2.01035e+07 2.01165e+07 2.01035e+07
          2.01165e+07 2.01035e+07 2.01165e+07 2.01035e+07 2.01165e+07 2.01035e+07 2.01162e+07 2.01032e+07 2.01143e+07 2.01014e+07 2.01038e+07 2.00908e+07
          2.00413e+07 2.00283e+07 1.94022e+07 1.93917e+07 1.34648e+07 1.3459e+07 1.94022e+07 1.93917e+07 2.00413e+07 2.00283e+07 2.01038e+07 2.00908e+07
          2.01143e+07 2.01014e+07 2.01162e+07 2.01032e+07 2.01165e+07 2.01035e+07 2.01165e+07 2.01035e+07 2.01165e+07 2.01035e+07 2.01165e+07 2.01035e+07
          2.01165e+07 2.01035e+07 2.01165e+07 2.01035e+07 2.01165e+07 2.01035e+07 2.01165e+07 2.01035e+07 2.01165e+07 2.01035e+07 2.01165e+07 2.01035e+07
          2.01165e+07 2.01035e+07 2.01165e+07 2.01035e+07 2.01165e+07 2.01035e+07 2.01165e+07 2.01035e+07 2.01165e+07 2.01035e+07 2.01165e+07 2.01035e+07
          2.01165e+07 2.01035e+07 2.01165e+07 2.01035e+07 2.01165e+07 2.01035e+07 2.01165e+07 2.01035e+07 2.01165e+07 2.01035e+07 2.01165e+07 2.01035e+07
          2.01165e+07 2.01035e+07 2.01165e+07 2.01035e+07 2.01165e+07 2.01035e+07 2.01165e+07 2.01035e+07 2.01165e+07 2.01035e+07 2.01165e+07 2.01035e+07
          2.01165e+07 2.01035e+07 2.01165e+07 2.01035e+07 2.01165e+07 2.01035e+07 2.01166e+07 2.01036e+07 2.01173e+07 2.01044e+07 2.0122e+07 2.0109e+07
          2.01443e+07 2.01313e+07 2.02094e+07 2.01965e+07 2.03312e+07 2.03182e+07 2.05474e+07 2.05345e+07 2.09158e+07 2.09029e+07 2.15148e+07 2.15019e+07
          2.24346e+07 2.24217e+07 2.37492e+07 2.37361e+07 2.54861e+07 2.54736e+07 2.76068e+07 2.75916e+07 3e+07 3e+07 3e+07 2.75763e+07
          2.5461e+07 2.37231e+07 2.24087e+07 2.14889e+07 2.08899e+07 2.05215e+07 2.03053e+07 2.01835e+07 2.01183e+07 2.0096e+07 2.00914e+07 2.00906e+07
          2.00906e+07 2.00906e+07 2.00906e+07 2.00906e+07 2.00906e+07 2.00906e+07 2.00906e+07 2.00906e+07 2.00906e+07 2.00906e+07 2.00906e+07 2.00906e+07
          2.00906e+07 2.00906e+07 2.00906e+07 2.00906e+07 2.00906e+07 2.00906e+07 2.00906e+07 2.00906e+07 2.00906e+07 2.00906e+07 2.00906e+07 2.00906e+07
          2.00906e+07 2.00906e+07 2.00906e+07 2.00906e+07 2.00906e+07 2.00906e+07 2.00905e+07 2.00903e+07 2.00884e+07 2.00779e+07 2.00159e+07 1.93827e+07
          1.34472e+07 1.93827e+07 2.00159e+07 2.00779e+07 2.00884e+07 2.00903e+07 2.00905e+07 2.00906e+07 2.00906e+07 2.00906e+07 2.00906e+07 2.00906e+07
          2.00906e+07 2.00906e+07 2.00906e+07 2.00906e+07 2.00906e+07 2.00906e+07 2.00906e+07 2.00906e+07 2.00906e+07 2.00906e+07 2.00906e+07 2.00906e+07
          2.00906e+07 2.00906e+07 2.00906e+07 2.00906e+07 2.00906e+07 2.00906e+07 2.00906e+07 2.00906e+07 2.00906e+07 2.00906e+07 2.00906e+07 2.00906e+07
          2.00906e+07 2.00906e+07 2.00914e+07 2.0096e+07 2.01183e+07 2.01835e+07 2.03053e+07 2.05215e+07 2.08899e+07 2.14889e+07 2.24087e+07 2.37231e+07
          2.5461e+07 2.75763e+07 3e+07 3e+07 2.75609e+07 2.54484e+07 2.371e+07 2.23957e+07 2.14759e+07 2.08769e+07 2.05085e+07 2.02923e+07
          2.01705e+07 2.01053e+07 2.0083e+07 2.00784e+07 2.00777e+07 2.00776e+07 2.00776e+07 2.00776e+07 2.00776e+07 2.00776e+07 2.00776e+07 2.00776e+07
          2.00776e+07 2.00776e+07 2.00776e+07 2.00776e+07 2.00776e+07 2.00776e+07 2.00776e+07 2.00776e+07 2.00776e+07 2.00776e+07 2.00776e+07 2.00776e+07
          2.00776e+07 2.00776e+07 2.00776e+07 2.00776e+07 2.00776e+07 2.00776e+07 2.00776e+07 2.00776e+07 2.00776e+07 2.00776e+07 2.00776e+07 2.00775e+07
          2.00773e+07 2.00755e+07 2.00649e+07 2.00042e+07 1.93749e+07 1.34291e+07 1.93749e+07 2.00042e+07 2.00649e+07 2.00755e+07 2.00773e+07 2.00775e+07
          2.00776e+07 2.00776e+07 2.00776e+07 2.00776e+07 2.00776e+07 2.00776e+07 2.00776e+07 2.00776e+07 2.00776e+07 2.00776e+07 2.00776e+07 2.00776e+07
          2.00776e+07 2.00776e+07 2.00776e+07 2.00776e+07 2.00776e+07 2.00776e+07 2.00776e+07 2.00776e+07 2.00776e+07 2.00776e+07 2.00776e+07 2.00776e+07
          2.00776e+07 2.00776e+07 2.00776e+07 2.00776e+07 2.00776e+07 2.00776e+07 2.00777e+07 2.00784e+07 2.0083e+07 2.01053e+07 2.01705e+07 2.02923e+07
          2.05085e+07 2.08769e+07 2.14759e+07 2.23957e+07 2.371e+07 2.54484e+07 2.75609e+07 3e+07 3e+07 2.75455e+07 2.54359e+07 2.3697e+07
          2.23828e+07 2.14629e+07 2.08639e+07 2.04956e+07 2.02793e+07 2.01576e+07 2.00923e+07 2.007e+07 2.00654e+07 2.00647e+07 2.00646e+07 2.00646e+07
          2.00646e+07 2.00646e+07 2.00646e+07 2.00646e+07 2.00646e+07 2.00646e+07 2.00646e+07 2.00646e+07 2.00646e+07 2.00646e+07 2.00646e+07 2.00646e+07
          2.00646e+07 2.00646e+07 2.00646e+07 2.00646e+07 2.00646e+07 2.00646e+07 2.00646e+07 2.00646e+07 2.00646e+07 2.00646e+07 2.00646e+07 2.00646e+07
          2.00646e+07 2.00646e+07 2.00646e+07 2.00646e+07 2.00646e+07 2.00643e+07 2.00626e+07 2.00518e+07 1.99931e+07 1.93681e+07 1.34043e+07 1.93681e+07
          1.99931e+07 2.00518e+07 2.00626e+07 2.00643e+07 2.00646e+07 2.00646e+07 2.00646e+07 2.00646e+07 2.00646e+07 2.00646e+07 2.00646e+07 2.00646e+07
          2.00646e+07 2.00646e+07 2.00646e+07 2.00646e+07 2.00646e+07 2.00646e+07 2.00646e+07 2.00646e+07 2.00646e+07 2.00646e+07 2.00646e+07 2.00646e+07
          2.00646e+07 2.00646e+07 2.00646e+07 2.00646e+07 2.00646e+07 2.00646e+07 2.00646e+07 2.00646e+07 2.00646e+07 2.00646e+07 2.00646e+07 2.00647e+07
          2.00654e+07 2.007e+07 2.00923e+07 2.01576e+07 2.02793e+07 2.04956e+07 2.08639e+07 2.14629e+07 2.23828e+07 2.3697e+07 2.54359e+07 2.75455e+07
          3e+07 2.99364e+07 2.75409e+07 2.54216e+07 2.36842e+07 2.23698e+07 2.145e+07 2.0851e+07 2.04826e+07 2.02663e+07 2.01446e+07 2.00793e+07
          2.00569e+07 2.00525e+07 2.00517e+07 2.00517e+07 2.00516e+07 2.00516e+07 2.00516e+07 2.00516e+07 2.00516e+07 2.00516e+07 2.00516e+07 2.00516e+07
          2.00516e+07 2.00516e+07 2.00516e+07 2.00516e+07 2.00516e+07 2.00516e+07 2.00516e+07 2.00516e+07 2.00516e+07 2.00516e+07 2.00516e+07 2.00516e+07
          2.00516e+07 2.00516e+07 2.00516e+07 2.00516e+07 2.00516e+07 2.00516e+07 2.00516e+07 2.00516e+07 2.00516e+07 2.00516e+07 2.00514e+07 2.00496e+07
          2.00389e+07 1.99818e+07 1.93626e+07 1.33725e+07 1.93626e+07 1.99818e+07 2.00389e+07 2.00496e+07 2.00514e+07 2.00516e+07 2.00516e+07 2.00516e+07
          2.00516e+07 2.00516e+07 2.00516e+07 2.00516e+07 2.00516e+07 2.00516e+07 2.00516e+07 2.00516e+07 2.00516e+07 2.00516e+07 2.00516e+07 2.00516e+07
          2.00516e+07 2.00516e+07 2.00516e+07 2.00516e+07 2.00516e+07 2.00516e+07 2.00516e+07 2.00516e+07 2.00516e+07 2.00516e+07 2.00516e+07 2.00516e+07
          2.00516e+07 2.00516e+07 2.00516e+07 2.00517e+07 2.00517e+07 2.00525e+07 2.00569e+07 2.00793e+07 2.01446e+07 2.02663e+07 2.04826e+07 2.0851e+07
          2.145e+07 2.23698e+07 2.36842e+07 2.54216e+07 2.75409e+07 2.99364e+07 2.98902e+07 2.75333e+07 2.54077e+07 2.36714e+07 2.23568e+07 2.1437e+07
          2.0838e+07 2.04696e+07 2.02534e+07 2.01316e+07 2.00663e+07 2.00439e+07 2.00395e+07 2.00388e+07 2.00387e+07 2.00387e+07 2.00387e+07 2.00387e+07
          2.00387e+07 2.00387e+07 2.00387e+07 2.00387e+07 2.00387e+07 2.00387e+07 2.00387e+07 2.00387e+07 2.00387e+07 2.00387e+07 2.00387e+07 2.00387e+07
          2.00387e+07 2.00387e+07 2.00387e+07 2.00387e+07 2.00387e+07 2.00387e+07 2.00387e+07 2.00387e+07 2.00387e+07 2.00387e+07 2.00387e+07 2.00387e+07
          2.00387e+07 2.00387e+07 2.00386e+07 2.00384e+07 2.00367e+07 2.00261e+07 1.997e+07 1.93585e+07 1.33333e+07 1.93585e+07 1.997e+07 2.00261e+07
          2.00367e+07 2.00384e+07 2.00386e+07 2.00387e+07 2.00387e+07 2.00387e+07 2.00387e+07 2.00387e+07 2.00387e+07 2.00387e+07 2.00387e+07 2.00387e+07
          2.00387e+07 2.00387e+07 2.00387e+07 2.00387e+07 2.00387e+07 2.00387e+07 2.00387e+07 2.00387e+07 2.00387e+07 2.00387e+07 2.00387e+07 2.00387e+07
          2.00387e+07 2.00387e+07 2.00387e+07 2.00387e+07 2.00387e+07 2.00387e+07 2.00387e+07 2.00387e+07 2.00387e+07 2.00388e+07 2.00395e+07 2.00439e+07
          2.00663e+07 2.01316e+07 2.02534e+07 2.04696e+07 2.0838e+07 2.1437e+07 2.23568e+07 2.36714e+07 2.54077e+07 2.75333e+07 2.98902e+07 2.98518e+07
          2.75243e+07 2.53941e+07 2.36585e+07 2.23438e+07 2.1424e+07 2.0825e+07 2.04566e+07 2.02404e+07 2.01187e+07 2.00534e+07 2.00308e+07 2.00265e+07
          2.00258e+07 2.00257e+07 2.00257e+07 2.00257e+07 2.00257e+07 2.00257e+07 2.00257e+07 2.00257e+07 2.00257e+07 2.00257e+07 2.00257e+07 2.00257e+07
          2.00257e+07 2.00257e+07 2.00257e+07 2.00257e+07 2.00257e+07 2.00257e+07 2.00257e+07 2.00257e+07 2.00257e+07 2.00257e+07 2.00257e+07 2.00257e+07
          2.00257e+07 2.00257e+07 2.00257e+07 2.00257e+07 2.00257e+07 2.00257e+07 2.00257e+07 2.00257e+07 2.00254e+07 2.00238e+07 2.00132e+07 1.99589e+07
          1.93478e+07 1.33333e+07 1.93478e+07 1.99589e+07 2.00132e+07 2.00238e+07 2.00254e+07 2.00257e+07 2.00257e+07 2.00257e+07 2.00257e+07 2.00257e+07
          2.00257e+07 2.00257e+07 2.00257e+07 2.00257e+07 2.00257e+07 2.00257e+07 2.00257e+07 2.00257e+07 2.00257e+07 2.00257e+07 2.00257e+07 2.00257e+07
          2.00257e+07 2.00257e+07 2.00257e+07 2.00257e+07 2.00257e+07 2.00257e+07 2.00257e+07 2.00257e+07 2.00257e+07 2.00257e+07 2.00257e+07 2.00257e+07
          2.00257e+07 2.00257e+07 2.00258e+07 2.00265e+07 2.00308e+07 2.00534e+07 2.01187e+07 2.02404e+07 2.04566e+07 2.0825e+07 2.1424e+07 2.23438e+07
          2.36585e+07 2.53941e+07 2.75243e+07 2.98518e+07 2.98208e+07 2.75141e+07 2.53807e+07 2.36456e+07 2.23308e+07 2.14111e+07 2.08121e+07 2.04437e+07
          2.02274e+07 2.01057e+07 2.00404e+07 2.00177e+07 2.00135e+07 2.00128e+07 2.00127e+07 2.00127e+07 2.00127e+07 2.00127e+07 2.00127e+07 2.00127e+07
          2.00127e+07 2.00127e+07 2.00127e+07 2.00127e+07 2.00127e+07 2.00127e+07 2.00127e+07 2.00127e+07 2.00127e+07 2.00127e+07 2.00127e+07 2.00127e+07
          2.00127e+07 2.00127e+07 2.00127e+07 2.00127e+07 2.00127e+07 2.00127e+07 2.00127e+07 2.00127e+07 2.00127e+07 2.00127e+07 2.00127e+07 2.00127e+07
          2.00127e+07 2.00125e+07 2.00109e+07 2.00005e+07 1.99474e+07 1.93371e+07 1.33333e+07 1.93371e+07 1.99474e+07 2.00005e+07 2.00109e+07 2.00125e+07
          2.00127e+07 2.00127e+07 2.00127e+07 2.00127e+07 2.00127e+07 2.00127e+07 2.00127e+07 2.00127e+07 2.00127e+07 2.00127e+07 2.00127e+07 2.00127e+07
          2.00127e+07 2.00127e+07 2.00127e+07 2.00127e+07 2.00127e+07 2.00127e+07 2.00127e+07 2.00127e+07 2.00127e+07 2.00127e+07 2.00127e+07 2.00127e+07
          2.00127e+07 2.00127e+07 2.00127e+07 2.00127e+07 2.00127e+07 2.00127e+07 2.00127e+07 2.00128e+07 2.00135e+07 2.00177e+07 2.00404e+07 2.01057e+07
          2.02274e+07 2.04437e+07 2.08121e+07 2.14111e+07 2.23308e+07 2.36456e+07 2.53807e+07 2.75141e+07 2.98208e+07 2.97971e+07 2.75028e+07 2.53675e+07
          2.36326e+07 2.23178e+07 2.13981e+07 2.07991e+07 2.04307e+07 2.02145e+07 2.00928e+07 2.00274e+07 2.00046e+07 2.00005e+07 1.99998e+07 1.99998e+07
          1.99998e+07 1.99998e+07 1.99998e+07 1.99998e+07 1.99998e+07 1.99998e+07 1.99998e+07 1.99998e+07 1.99998e+07 1.99998e+07 1.99998e+07 1.99998e+07
          1.99998e+07 1.99998e+07 1.99998e+07 1.99998e+07 1.99998e+07 1.99998e+07 1.99998e+07 1.99998e+07 1.99998e+07 1.99998e+07 1.99998e+07 1.99998e+07
          1.99998e+07 1.99998e+07 1.99998e+07 1.99998e+07 1.99998e+07 1.99997e+07 1.99995e+07 1.99979e+07 1.99879e+07 1.99355e+07 1.93265e+07 1.33333e+07
          1.93265e+07 1.99355e+07 1.99879e+07 1.99979e+07 1.99995e+07 1.99997e+07 1.99998e+07 1.99998e+07 1.99998e+07 1.99998e+07 1.99998e+07 1.99998e+07
          1.99998e+07 1.99998e+07 1.99998e+07 1.99998e+07 1.99998e+07 1.99998e+07 1.99998e+07 1.99998e+07 1.99998e+07 1.99998e+07 1.99998e+07 1.99998e+07
          1.99998e+07 1.99998e+07 1.99998e+07 1.99998e+07 1.99998e+07 1.99998e+07 1.99998e+07 1.99998e+07 1.99998e+07 1.99998e+07 1.99998e+07 1.99998e+07
          1.99998e+07 2.00005e+07 2.00046e+07 2.00274e+07 2.00928e+07 2.02145e+07 2.04307e+07 2.07991e+07 2.13981e+07 2.23178e+07 2.36326e+07 2.53675e+07
          2.75028e+07 2.97971e+07 2.97805e+07 2.74904e+07 2.53544e+07 2.36197e+07 2.23048e+07 2.13851e+07 2.07861e+07 2.04177e+07 2.02015e+07 2.00798e+07
          2.00145e+07 1.99914e+07 1.99876e+07 1.99869e+07 1.99868e+07 1.99868e+07 1.99868e+07 1.99868e+07 1.99868e+07 1.99868e+07 1.99868e+07 1.99868e+07
          1.99868e+07 1.99868e+07 1.99868e+07 1.99868e+07 1.99868e+07 1.99868e+07 1.99868e+07 1.99868e+07 1.99868e+07 1.99868e+07 1.99868e+07 1.99868e+07
          1.99868e+07 1.99868e+07 1.99868e+07 1.99868e+07 1.99868e+07 1.99868e+07 1.99868e+07 1.99868e+07 1.99868e+07 1.99868e+07 1.99868e+07 1.99865e+07
          1.9985e+07 1.99751e+07 1.99233e+07 1.93159e+07 1.33333e+07 1.93159e+07 1.99233e+07 1.99751e+07 1.9985e+07 1.99865e+07 1.99868e+07 1.99868e+07
          1.99868e+07 1.99868e+07 1.99868e+07 1.99868e+07 1.99868e+07 1.99868e+07 1.99868e+07 1.99868e+07 1.99868e+07 1.99868e+07 1.99868e+07 1.99868e+07
          1.99868e+07 1.99868e+07 1.99868e+07 1.99868e+07 1.99868e+07 1.99868e+07 1.99868e+07 1.99868e+07 1.99868e+07 1.99868e+07 1.99868e+07 1.99868e+07
          1.99868e+07 1.99868e+07 1.99868e+07 1.99868e+07 1.99868e+07 1.99869e+07 1.99876e+07 1.99914e+07 2.00145e+07 2.00798e+07 2.02015e+07 2.04177e+07
          2.07861e+07 2.13851e+07 2.23048e+07 2.36197e+07 2.53544e+07 2.74904e+07 2.97805e+07
        </DataArray>
        <DataArray type="Float32" Name="pressure_w" NumberOfComponents="1" format="ascii">
          3e+07 2.76068e+07 3e+07 2.75916e+07 2.54861e+07 2.54736e+07 2.37492e+07 2.37361e+07 2.24346e+07 2.24217e+07 2.15148e+07 2.15019e+07
          2.09158e+07 2.09029e+07 2.05474e+07 2.05345e+07 2.03312e+07 2.03182e+07 2.02094e+07 2.01965e+07 2.01443e+07 2.01313e+07 2.0122e+07 2.0109e+07
          2.01173e+07 2.01044e+07 2.01166e+07 2.01036e+07 2.01165e+07 2.01035e+07 2.01165e+07 2.01035e+07 2.01165e+07 2.01035e+07 2.01165e+07 2.01035e+07
          2.01165e+07 2.01035e+07 2.01165e+07 2.01035e+07 2.01165e+07 2.01035e+07 2.01165e+07 2.01035e+07 2.01165e+07 2.01035e+07 2.01165e+07 2.01035e+07
          2.01165e+07 2.01035e+07 2.01165e+07 2.01035e+07 2.01165e+07 2.01035e+07 2.01165e+07 2.01035e+07 2.01165e+07 2.01035e+07 2.01165e+07 2.01035e+07
          2.01165e+07 2.01035e+07 2.01165e+07 2.01035e+07 2.01165e+07 2.01035e+07 2.01165e+07 2.01035e+07 2.01165e+07 2.01035e+07 2.01165e+07 2.01035e+07
          2.01165e+07 2.01035e+07 2.01165e+07 2.01035e+07 2.01165e+07 2.01035e+07 2.01165e+07 2.01035e+07 2.01165e+07 2.01035e+07 2.01165e+07 2.01035e+07
          2.01165e+07 2.01035e+07 2.01165e+07 2.01035e+07 2.01165e+07 2.01035e+07 2.01162e+07 2.01032e+07 2.01143e+07 2.01014e+07 2.01038e+07 2.00908e+07
          2.00413e+07 2.00283e+07 1.94022e+07 1.93917e+07 1.34648e+07 1.3459e+07 1.94022e+07 1.93917e+07 2.00413e+07 2.00283e+07 2.01038e+07 2.00908e+07
          2.01143e+07 2.01014e+07 2.01162e+07 2.01032e+07 2.01165e+07 2.01035e+07 2.01165e+07 2.01035e+07 2.01165e+07 2.01035e+07 2.01165e+07 2.01035e+07
          2.01165e+07 2.01035e+07 2.01165e+07 2.01035e+07 2.01165e+07 2.01035e+07 2.01165e+07 2.01035e+07 2.01165e+07 2.01035e+07 2.01165e+07 2.01035e+07
          2.01165e+07 2.01035e+07 2.01165e+07 2.01035e+07 2.01165e+07 2.01035e+07 2.01165e+07 2.01035e+07 2.01165e+07 2.01035e+07 2.01165e+07 2.01035e+07
          2.01165e+07 2.01035e+07 2.01165e+07 2.01035e+07 2.01165e+07 2.01035e+07 2.01165e+07 2.01035e+07 2.01165e+07 2.01035e+07 2.01165e+07 2.01035e+07
          2.01165e+07 2.01035e+07 2.01165e+07 2.01035e+07 2.01165e+07 2.01035e+07 2.01165e+07 2.01035e+07 2.01165e+07 2.01035e+07 2.01165e+07 2.01035e+07
          2.01165e+07 2.01035e+07 2.01165e+07 2.01035e+07 2.01165e+07 2.01035e+07 2.01166e+07 2.01036e+07 2.01173e+07 2.01044e+07 2.0122e+07 2.0109e+07
          2.01443e+07 2.01313e+07 2.02094e+07 2.01965e+07 2.03312e+07 2.03182e+07 2.05474e+07 2.05345e+07 2.09158e+07 2.09029e+07 2.15148e+07 2.15019e+07
          2.24346e+07 2.24217e+07 2.37492e+07 2.37361e+07 2.54861e+07 2.54736e+07 2.76068e+07 2.75916e+07 3e+07 3e+07 3e+07 2.75763e+07
          2.5461e+07 2.37231e+07 2.24087e+07 2.14889e+07 2.08899e+07 2.05215e+07 2.03053e+07 2.01835e+07 2.01183e+07 2.0096e+07 2.00914e+07 2.00906e+07
          2.00906e+07 2.00906e+07 2.00906e+07 2.00906e+07 2.00906e+07 2.00906e+07 2.00906e+07 2.00906e+07 2.00906e+07 2.00906e+07 2.00906e+07 2.00906e+07
          2.00906e+07 2.00906e+07 2.00906e+07 2.00906e+07 2.00906e+07 2.00906e+07 2.00906e+07 2.00906e+07 2.00906e+07 2.00906e+07 2.00906e+07 2.00906e+07
          2.00906e+07 2.00906e+07 2.00906e+07 2.00906e+07 2.00906e+07 2.00906e+07 2.00905e+07 2.00903e+07 2.00884e+07 2.00779e+07 2.00159e+07 1.93827e+07
          1.34472e+07 1.93827e+07 2.00159e+07 2.00779e+07 2.00884e+07 2.00903e+07 2.00905e+07 2.00906e+07 2.00906e+07 2.00906e+07 2.00906e+07 2.00906e+07
          2.00906e+07 2.00906e+07 2.00906e+07 2.00906e+07 2.00906e+07 2.00906e+07 2.00906e+07 2.00906e+07 2.00906e+07 2.00906e+07 2.00906e+07 2.00906e+07
          2.00906e+07 2.00906e+07 2.00906e+07 2.00906e+07 2.00906e+07 2.00906e+07 2.00906e+07 2.00906e+07 2.00906e+07 2.00906e+07 2.00906e+07 2.00906e+07
          2.00906e+07 2.00906e+07 2.00914e+07 2.0096e+07 2.01183e+07 2.01835e+07 2.03053e+07 2.05215e+07 2.08899e+07 2.14889e+07 2.24087e+07 2.37231e+07
          2.5461e+07 2.75763e+07 3e+07 3e+07 2.75609e+07 2.54484e+07 2.371e+07 2.23957e+07 2.14759e+07 2.08769e+07 2.05085e+07 2.02923e+07
          2.01705e+07 2.01053e+07 2.0083e+07 2.00784e+07 2.00777e+07 2.00776e+07 2.00776e+07 2.00776e+07 2.00776e+07 2.00776e+07 2.00776e+07 2.00776e+07
          2.00776e+07 2.00776e+07 2.00776e+07 2.00776e+07 2.00776e+07 2.00776e+07 2.00776e+07 2.00776e+07 2.00776e+07 2.00776e+07 2.00776e+07 2.00776e+07
          2.00776e+07 2.00776e+07 2.00776e+07 2.00776e+07 2.00776e+07 2.00776e+07 2.00776e+07 2.00776e+07 2.00776e+07 2.00776e+07 2.00776e+07 2.00775e+07
          2.00773e+07 2.00755e+07 2.00649e+07 2.00042e+07 1.93749e+07 1.34291e+07 1.93749e+07 2.00042e+07 2.00649e+07 2.00755e+07 2.00773e+07 2.00775e+07
          2.00776e+07 2.00776e+07 2.00776e+07 2.00776e+07 2.00776e+07 2.00776e+07 2.00776e+07 2.00776e+07 2.00776e+07 2.00776e+07 2.00776e+07 2.00776e+07
          2.00776e+07 2.00776e+07 2.00776e+07 2.00776e+07 2.00776e+07 2.00776e+07 2.00776e+07 2.00776e+07 2.00776e+07 2.00776e+07 2.00776e+07 2.00776e+07
          2.00776e+07 2.00776e+07 2.00776e+07 2.00776e+07 2.00776e+07 2.00776e+07 2.00777e+07 2.00784e+07 2.0083e+07 2.01053e+07 2.01705e+07 2.02923e+07
          2.05085e+07 2.08769e+07 2.14759e+07 2.23957e+07 2.371e+07 2.54484e+07 2.75609e+07 3e+07 3e+07 2.75455e+07 2.54359e+07 2.3697e+07
          2.23828e+07 2.14629e+07 2.08639e+07 2.04956e+07 2.02793e+07 2.01576e+07 2.00923e+07 2.007e+07 2.00654e+07 2.00647e+07 2.00646e+07 2.00646e+07
          2.00646e+07 2.00646e+07 2.00646e+07 2.00646e+07 2.00646e+07 2.00646e+07 2.00646e+07 2.00646e+07 2.00646e+07 2.00646e+07 2.00646e+07 2.00646e+07
          2.00646e+07 2.00646e+07 2.00646e+07 2.00646e+07 2.00646e+07 2.00646e+07 2.00646e+07 2.00646e+07 2.00646e+07 2.00646e+07 2.00646e+07 2.00646e+07
          2.00646e+07 2.00646e+07 2.00646e+07 2.00646e+07 2.00646e+07 2.00643e+07 2.00626e+07 2.00518e+07 1.99931e+07 1.93681e+07 1.34043e+07 1.93681e+07
          1.99931e+07 2.00518e+07 2.00626e+07 2.00643e+07 2.00646e+07 2.00646e+07 2.00646e+07 2.00646e+07 2.00646e+07 2.00646e+07 2.00646e+07 2.00646e+07
          2.00646e+07 2.00646e+07 2.00646e+07 2.00646e+07 2.00646e+07 2.00646e+07 2.00646e+07 2.00646e+07 2.00646e+07 2.00646e+07 2.00646e+07 2.00646e+07
          2.00646e+07 2.00646e+07 2.00646e+07 2.00646e+07 2.00646e+07 2.00646e+07 2.00646e+07 2.00646e+07 2.00646e+07 2.00646e+07 2.00646e+07 2.00647e+07
          2.00654e+07 2.007e+07 2.00923e+07 2.01576e+07 2.02793e+07 2.04956e+07 2.08639e+07 2.14629e+07 2.23828e+07 2.3697e+07 2.54359e+07 2.75455e+07
          3e+07 2.99364e+07 2.75409e+07 2.54216e+07 2.36842e+07 2.23698e+07 2.145e+07 2.0851e+07 2.04826e+07 2.02663e+07 2.01446e+07 2.00793e+07
          2.00569e+07 2.00525e+07 2.00517e+07 2.00517e+07 2.00516e+07 2.00516e+07 2.00516e+07 2.00516e+07 2.00516e+07 2.00516e+07 2.00516e+07 2.00516e+07
          2.00516e+07 2.00516e+07 2.00516e+07 2.00516e+07 2.00516e+07 2.00516e+07 2.00516e+07 2.00516e+07 2.00516e+07 2.00516e+07 2.00516e+07 2.00516e+07
          2.00516e+07 2.00516e+07 2.00516e+07 2.00516e+07 2.00516e+07 2.00516e+07 2.00516e+07 2.00516e+07 2.00516e+07 2.00516e+07 2.00514e+07 2.00496e+07
          2.00389e+07 1.99818e+07 1.93626e+07 1.33725e+07 1.93626e+07 1.99818e+07 2.00389e+07 2.00496e+07 2.00514e+07 2.00516e+07 2.00516e+07 2.00516e+07
          2.00516e+07 2.00516e+07 2.00516e+07 2.00516e+07 2.00516e+07 2.00516e+07 2.00516e+07 2.00516e+07 2.00516e+07 2.00516e+07 2.00516e+07 2.00516e+07
          2.00516e+07 2.00516e+07 2.00516e+07 2.00516e+07 2.00516e+07 2.00516e+07 2.00516e+07 2.00516e+07 2.00516e+07 2.00516e+07 2.00516e+07 2.00516e+07
          2.00516e+07 2.00516e+07 2.00516e+07 2.00517e+07 2.00517e+07 2.00525e+07 2.00569e+07 2.00793e+07 2.01446e+07 2.02663e+07 2.04826e+07 2.0851e+07
          2.145e+07 2.23698e+07 2.36842e+07 2.54216e+07 2.75409e+07 2.99364e+07 2.98902e+07 2.75333e+07 2.54077e+07 2.36714e+07 2.23568e+07 2.1437e+07
          2.0838e+07 2.04696e+07 2.02534e+07 2.01316e+07 2.00663e+07 2.00439e+07 2.00395e+07 2.00388e+07 2.00387e+07 2.00387e+07 2.00387e+07 2.00387e+07
          2.00387e+07 2.00387e+07 2.00387e+07 2.00387e+07 2.00387e+07 2.00387e+07 2.00387e+07 2.00387e+07 2.00387e+07 2.00387e+07 2.00387e+07 2.00387e+07
          2.00387e+07 2.00387e+07 2.00387e+07 2.00387e+07 2.00387e+07 2.00387e+07 2.00387e+07 2.00387e+07 2.00387e+07 2.00387e+07 2.00387e+07 2.00387e+07
          2.00387e+07 2.00387e+07 2.00386e+07 2.00384e+07 2.00367e+07 2.00261e+07 1.997e+07 1.93585e+07 1.33333e+07 1.93585e+07 1.997e+07 2.00261e+07
          2.00367e+07 2.00384e+07 2.00386e+07 2.00387e+07 2.00387e+07 2.00387e+07 2.00387e+07 2.00387e+07 2.00387e+07 2.00387e+07 2.00387e+07 2.00387e+07
          2.00387e+07 2.00387e+07 2.00387e+07 2.00387e+07 2.00387e+07 2.00387e+07 2.00387e+07 2.00387e+07 2.00387e+07 2.00387e+07 2.00387e+07 2.00387e+07
          2.00387e+07 2.00387e+07 2.00387e+07 2.00387e+07 2.00387e+07 2.00387e+07 2.00387e+07 2.00387e+07 2.00387e+07 2.00388e+07 2.00395e+07 2.00439e+07
          2.00663e+07 2.01316e+07 2.02534e+07 2.04696e+07 2.0838e+07 2.1437e+07 2.23568e+07 2.36714e+07 2.54077e+07 2.75333e+07 2.98902e+07 2.98518e+07
          2.75243e+07 2.53941e+07 2.36585e+07 2.23438e+07 2.1424e+07 2.0825e+07 2.04566e+07 2.02404e+07 2.01187e+07 2.00534e+07 2.00308e+07 2.00265e+07
          2.00258e+07 2.00257e+07 2.00257e+07 2.00257e+07 2.00257e+07 2.00257e+07 2.00257e+07 2.00257e+07 2.00257e+07 2.00257e+07 2.00257e+07 2.00257e+07
          2.00257e+07 2.00257e+07 2.00257e+07 2.00257e+07 2.00257e+07 2.00257e+07 2.00257e+07 2.00257e+07 2.00257e+07 2.00257e+07 2.00257e+07 2.00257e+07
          2.00257e+07 2.00257e+07 2.00257e+07 2.00257e+07 2.00257e+07 2.00257e+07 2.00257e+07 2.00257e+07 2.00254e+07 2.00238e+07 2.00132e+07 1.99589e+07
          1.93478e+07 1.33333e+07 1.93478e+07 1.99589e+07 2.00132e+07 2.00238e+07 2.00254e+07 2.00257e+07 2.00257e+07 2.00257e+07 2.00257e+07 2.00257e+07
          2.00257e+07 2.00257e+07 2.00257e+07 2.00257e+07 2.00257e+07 2.00257e+07 2.00257e+07 2.00257e+07 2.00257e+07 2.00257e+07 2.00257e+07 2.00257e+07
          2.00257e+07 2.00257e+07 2.00257e+07 2.00257e+07 2.00257e+07 2.00257e+07 2.00257e+07 2.00257e+07 2.00257e+07 2.00257e+07 2.00257e+07 2.00257e+07
          2.00257e+07 2.00257e+07 2.00258e+07 2.00265e+07 2.00308e+07 2.00534e+07 2.01187e+07 2.02404e+07 2.04566e+07 2.0825e+07 2.1424e+07 2.23438e+07
          2.36585e+07 2.53941e+07 2.75243e+07 2.98518e+07 2.98208e+07 2.75141e+07 2.53807e+07 2.36456e+07 2.23308e+07 2.14111e+07 2.08121e+07 2.04437e+07
          2.02274e+07 2.01057e+07 2.00404e+07 2.00177e+07 2.00135e+07 2.00128e+07 2.00127e+07 2.00127e+07 2.00127e+07 2.00127e+07 2.00127e+07 2.00127e+07
          2.00127e+07 2.00127e+07 2.00127e+07 2.00127e+07 2.00127e+07 2.00127e+07 2.00127e+07 2.00127e+07 2.00127e+07 2.00127e+07 2.00127e+07 2.00127e+07
          2.00127e+07 2.00127e+07 2.00127e+07 2.00127e+07 2.00127e+07 2.00127e+07 2.00127e+07 2.00127e+07 2.00127e+07 2.00127e+07 2.00127e+07 2.00127e+07
          2.00127e+07 2.00125e+07 2.00109e+07 2.00005e+07 1.99474e+07 1.93371e+07 1.33333e+07 1.93371e+07 1.99474e+07 2.00005e+07 2.00109e+07 2.00125e+07
          2.00127e+07 2.00127e+07 2.00127e+07 2.00127e+07 2.00127e+07 2.00127e+07 2.00127e+07 2.00127e+07 2.00127e+07 2.00127e+07 2.00127e+07 2.00127e+07
          2.00127e+07 2.00127e+07 2.00127e+07 2.00127e+07 2.00127e+07 2.00127e+07 2.00127e+07 2.00127e+07 2.00127e+07 2.00127e+07 2.00127e+07 2.00127e+07
          2.00127e+07 2.00127e+07 2.00127e+07 2.00127e+07 2.00127e+07 2.00127e+07 2.00127e+07 2.00128e+07 2.00135e+07 2.00177e+07 2.00404e+07 2.01057e+07
          2.02274e+07 2.04437e+07 2.08121e+07 2.14111e+07 2.23308e+07 2.36456e+07 2.53807e+07 2.75141e+07 2.98208e+07 2.97971e+07 2.75028e+07 2.53675e+07
          2.36326e+07 2.23178e+07 2.13981e+07 2.07991e+07 2.04307e+07 2.02145e+07 2.00928e+07 2.00274e+07 2.00046e+07 2.00005e+07 1.99998e+07 1.99998e+07
          1.99998e+07 1.99998e+07 1.99998e+07 1.99998e+07 1.99998e+07 1.99998e+07 1.99998e+07 1.99998e+07 1.99998e+07 1.99998e+07 1.99998e+07 1.99998e+07
          1.99998e+07 1.99998e+07 1.99998e+07 1.99998e+07 1.99998e+07 1.99998e+07 1.99998e+07 1.99998e+07 1.99998e+07 1.99998e+07 1.99998e+07 1.99998e+07
          1.99998e+07 1.99998e+07 1.99998e+07 1.99998e+07 1.99998e+07 1.99997e+07 1.99995e+07 1.99979e+07 1.99879e+07 1.99355e+07 1.93265e+07 1.33333e+07
          1.93265e+07 1.99355e+07 1.99879e+07 1.99979e+07 1.99995e+07 1.99997e+07 1.99998e+07 1.99998e+07 1.99998e+07 1.99998e+07 1.99998e+07 1.99998e+07
          1.99998e+07 1.99998e+07 1.99998e+07 1.99998e+07 1.99998e+07 1.99998e+07 1.99998e+07 1.99998e+07 1.99998e+07 1.99998e+07 1.99998e+07 1.99998e+07
          1.99998e+07 1.99998e+07 1.99998e+07 1.99998e+07 1.99998e+07 1.99998e+07 1.99998e+07 1.99998e+07 1.99998e+07 1.99998e+07 1.99998e+07 1.99998e+07
          1.99998e+07 2.00005e+07 2.00046e+07 2.00274e+07 2.00928e+07 2.02145e+07 2.04307e+07 2.07991e+07 2.13981e+07 2.23178e+07 2.36326e+07 2.53675e+07
          2.75028e+07 2.97971e+07 2.97805e+07 2.74904e+07 2.53544e+07 2.36197e+07 2.23048e+07 2.13851e+07 2.07861e+07 2.04177e+07 2.02015e+07 2.00798e+07
          2.00145e+07 1.99914e+07 1.99876e+07 1.99869e+07 1.99868e+07 1.99868e+07 1.99868e+07 1.99868e+07 1.99868e+07 1.99868e+07 1.99868e+07 1.99868e+07
          1.99868e+07 1.99868e+07 1.99868e+07 1.99868e+07 1.99868e+07 1.99868e+07 1.99868e+07 1.99868e+07 1.99868e+07 1.99868e+07 1.99868e+07 1.99868e+07
          1.99868e+07 1.99868e+07 1.99868e+07 1.99868e+07 1.99868e+07 1.99868e+07 1.99868e+07 1.99868e+07 1.99868e+07 1.99868e+07 1.99868e+07 1.99865e+07
          1.9985e+07 1.99751e+07 1.99233e+07 1.93159e+07 1.33333e+07 1.93159e+07 1.99233e+07 1.99751e+07 1.9985e+07 1.99865e+07 1.99868e+07 1.99868e+07
          1.99868e+07 1.99868e+07 1.99868e+07 1.99868e+07 1.99868e+07 1.99868e+07 1.99868e+07 1.99868e+07 1.99868e+07 1.99868e+07 1.99868e+07 1.99868e+07
          1.99868e+07 1.99868e+07 1.99868e+07 1.99868e+07 1.99868e+07 1.99868e+07 1.99868e+07 1.99868e+07 1.99868e+07 1.99868e+07 1.99868e+07 1.99868e+07
          1.99868e+07 1.99868e+07 1.99868e+07 1.99868e+07 1.99868e+07 1.99869e+07 1.99876e+07 1.99914e+07 2.00145e+07 2.00798e+07 2.02015e+07 2.04177e+07
          2.07861e+07 2.13851e+07 2.23048e+07 2.36197e+07 2.53544e+07 2.74904e+07 2.97805e+07
        </DataArray>
        <DataArray type="Float32" Name="pressure_g" NumberOfComponents="1" format="ascii">
          3e+07 2.76068e+07 3e+07 2.75916e+07 2.54861e+07 2.54736e+07 2.37492e+07 2.37361e+07 2.24346e+07 2.24217e+07 2.15148e+07 2.15019e+07
          2.09158e+07 2.09029e+07 2.05474e+07 2.05345e+07 2.03312e+07 2.03182e+07 2.02094e+07 2.01965e+07 2.01443e+07 2.01313e+07 2.0122e+07 2.0109e+07
          2.01173e+07 2.01044e+07 2.01166e+07 2.01036e+07 2.01165e+07 2.01035e+07 2.01165e+07 2.01035e+07 2.01165e+07 2.01035e+07 2.01165e+07 2.01035e+07
          2.01165e+07 2.01035e+07 2.01165e+07 2.01035e+07 2.01165e+07 2.01035e+07 2.01165e+07 2.01035e+07 2.01165e+07 2.01035e+07 2.01165e+07 2.01035e+07
          2.01165e+07 2.01035e+07 2.01165e+07 2.01035e+07 2.01165e+07 2.01035e+07 2.01165e+07 2.01035e+07 2.01165e+07 2.01035e+07 2.01165e+07 2.01035e+07
          2.01165e+07 2.01035e+07 2.01165e+07 2.01035e+07 2.01165e+07 2.01035e+07 2.01165e+07 2.01035e+07 2.01165e+07 2.01035e+07 2.01165e+07 2.01035e+07
          2.01165e+07 2.01035e+07 2.01165e+07 2.01035e+07 2.01165e+07 2.01035e+07 2.01165e+07 2.01035e+07 2.01165e+07 2.01035e+07 2.01165e+07 2.01035e+07