<?xml version="1.0"?>
<VTKFile type="UnstructuredGrid" version="0.1" byte_order="LittleEndian">
  <UnstructuredGrid>
    <Piece NumberOfCells="1000" NumberOfPoints="1111">
      <PointData Scalars="pressure_o">
        <DataArray type="Float32" Name="pressure_o" NumberOfComponents="1" format="ascii">
          3e+07 2.96291e+07 3e+07 2.96055e+07 2.92063e+07 2.91942e+07 2.8805e+07 2.87918e+07 2.84013e+07 2.83884e+07 2.79978e+07 2.79848e+07
          2.75938e+07 2.75808e+07 2.71895e+07 2.71765e+07 2.67848e+07 2.67718e+07 2.63797e+07 2.63667e+07 2.5974e+07 2.5961e+07 2.55675e+07 2.55545e+07
          2.516e+07 2.5147e+07 2.47513e+07 2.47383e+07 2.4341e+07 2.4328e+07 2.39287e+07 2.39158e+07 2.35143e+07 2.35013e+07 2.30974e+07 2.30844e+07
          2.26782e+07 2.26652e+07 2.22565e+07 2.22435e+07 2.18325e+07 2.18195e+07 2.14065e+07 2.13935e+07 2.09787e+07 2.09657e+07 2.05492e+07 2.05362e+07
          2.01182e+07 2.01052e+07 1.96853e+07 1.96723e+07 1.9274e+07 1.9261e+07 1.88826e+07 1.88696e+07 1.85127e+07 1.84997e+07 1.81657e+07 1.81526e+07
          1.78417e+07 1.78287e+07 1.75401e+07 1.7527e+07 1.72587e+07 1.72456e+07 1.69952e+07 1.69821e+07 1.67466e+07 1.67335e+07 1.65099e+07 1.64968e+07
          1.62813e+07 1.62681e+07 1.60594e+07 1.60463e+07 1.58433e+07 1.58301e+07 1.5631e+07 1.56178e+07 1.54217e+07 1.54085e+07 1.52147e+07 1.52015e+07
          1.50099e+07 1.49966e+07 1.48071e+07 1.47938e+07 1.46063e+07 1.4593e+07 1.44074e+07 1.43942e+07 1.42104e+07 1.41972e+07 1.4015e+07 1.40018e+07
          1.38209e+07 1.38076e+07 1.36291e+07 1.36159e+07 1.34251e+07 1.34115e+07 1.36291e+07 1.36159e+07 1.38209e+07 1.38076e+07 1.4015e+07 1.40018e+07
          1.42104e+07 1.41972e+07 1.44074e+07 1.43942e+07 1.46063e+07 1.4593e+07 1.48071e+07 1.47938e+07 1.50099e+07 1.49966e+07 1.52147e+07 1.52015e+07
          1.54217e+07 1.54085e+07 1.5631e+07 1.56178e+07 1.58433e+07 1.58301e+07 1.60594e+07 1.60463e+07 1.62813e+07 1.62681e+07 1.65099e+07 1.64968e+07
          1.67466e+07 1.67335e+07 1.69952e+07 1.69821e+07 1.72587e+07 1.72456e+07 1.75401e+07 1.7527e+07 1.78417e+07 1.78287e+07 1.81657e+07 1.81526e+07
          1.85127e+07 1.84997e+07 1.88826e+07 1.88696e+07 1.9274e+07 1.9261e+07 1.96853e+07 1.96723e+07 2.01182e+07 2.01052e+07 2.05492e+07 2.05362e+07
          2.09787e+07 2.09657e+07 2.14065e+07 2.13935e+07 2.18325e+07 2.18195e+07 2.22565e+07 2.22435e+07 2.26782e+07 2.26652e+07 2.30974e+07 2.30844e+07
          2.35143e+07 2.35013e+07 2.39287e+07 2.39158e+07 2.4341e+07 2.4328e+07 2.47513e+07 2.47383e+07 2.516e+07 2.5147e+07 2.55675e+07 2.55545e+07
          2.5974e+07 2.5961e+07 2.63797e+07 2.63667e+07 2.67848e+07 2.67718e+07 2.71895e+07 2.71765e+07 2.75938e+07 2.75808e+07 2.79978e+07 2.79848e+07
          2.84013e+07 2.83884e+07 2.8805e+07 2.87918e+07 2.92063e+07 2.91942e+07 2.96291e+07 2.96055e+07 3e+07 3e+07 3e+07 2.95872e+07
          2.91818e+07 2.87787e+07 2.83754e+07 2.79718e+07 2.75678e+07 2.71635e+07 2.67588e+07 2.63537e+07 2.5948e+07 2.55415e+07 2.51341e+07 2.47254e+07
          2.4315e+07 2.39028e+07 2.34883e+07 2.30715e+07 2.26522e+07 2.22305e+07 2.18066e+07 2.13806e+07 2.09528e+07 2.05233e+07 2.00922e+07 1.96593e+07
          1.9248e+07 1.88566e+07 1.84867e+07 1.81396e+07 1.78156e+07 1.75139e+07 1.72325e+07 1.6969e+07 1.67204e+07 1.64836e+07 1.6255e+07 1.60331e+07
          1.58169e+07 1.56047e+07 1.53953e+07 1.51883e+07 1.49834e+07 1.47806e+07 1.45798e+07 1.43809e+07 1.41839e+07 1.39885e+07 1.37943e+07 1.36028e+07
          1.33972e+07 1.36028e+07 1.37943e+07 1.39885e+07 1.41839e+07 1.43809e+07 1.45798e+07 1.47806e+07 1.49834e+07 1.51883e+07 1.53953e+07 1.56047e+07
          1.58169e+07 1.60331e+07 1.6255e+07 1.64836e+07 1.67204e+07 1.6969e+07 1.72325e+07 1.75139e+07 1.78156e+07 1.81396e+07 1.84867e+07 1.88566e+07
          1.9248e+07 1.96593e+07 2.00922e+07 2.05233e+07 2.09528e+07 2.13806e+07 2.18066e+07 2.22305e+07 2.26522e+07 2.30715e+07 2.34883e+07 2.39028e+07
          2.4315e+07 2.47254e+07 2.51341e+07 2.55415e+07 2.5948e+07 2.63537e+07 2.67588e+07 2.71635e+07 2.75678e+07 2.79718e+07 2.83754e+07 2.87787e+07
          2.91818e+07 2.95872e+07 3e+07 3e+07 2.957e+07 2.91693e+07 2.87656e+07 2.83624e+07 2.79588e+07 2.75548e+07 2.71505e+07 2.67459e+07
          2.63407e+07 2.5935e+07 2.55285e+07 2.51211e+07 2.47124e+07 2.43021e+07 2.38898e+07 2.34753e+07 2.30585e+07 2.26392e+07 2.22175e+07 2.17936e+07
          2.13676e+07 2.09398e+07 2.05103e+07 2.00792e+07 1.96464e+07 1.92351e+07 1.88436e+07 1.84736e+07 1.81265e+07 1.78026e+07 1.75008e+07 1.72195e+07
          1.69559e+07 1.67073e+07 1.64705e+07 1.62419e+07 1.602e+07 1.58038e+07 1.55915e+07 1.53821e+07 1.51751e+07 1.49702e+07 1.47674e+07 1.45665e+07
          1.43677e+07 1.41706e+07 1.39752e+07 1.3781e+07 1.35898e+07 1.33822e+07 1.35898e+07 1.3781e+07 1.39752e+07 1.41706e+07 1.43677e+07 1.45665e+07
          1.47674e+07 1.49702e+07 1.51751e+07 1.53821e+07 1.55915e+07 1.58038e+07 1.602e+07 1.62419e+07 1.64705e+07 1.67073e+07 1.69559e+07 1.72195e+07
          1.75008e+07 1.78026e+07 1.81265e+07 1.84736e+07 1.88436e+07 1.92351e+07 1.96464e+07 2.00792e+07 2.05103e+07 2.09398e+07 2.13676e+07 2.17936e+07
          2.22175e+07 2.26392e+07 2.30585e+07 2.34753e+07 2.38898e+07 2.43021e+07 2.47124e+07 2.51211e+07 2.55285e+07 2.5935e+07 2.63407e+07 2.67459e+07
          2.71505e+07 2.75548e+07 2.79588e+07 2.83624e+07 2.87656e+07 2.91693e+07 2.957e+07 3e+07 3e+07 2.95532e+07 2.91568e+07 2.87526e+07
          2.83494e+07 2.79458e+07 2.75419e+07 2.71376e+07 2.67329e+07 2.63277e+07 2.5922e+07 2.55156e+07 2.51081e+07 2.46994e+07 2.42891e+07 2.38768e+07
          2.34624e+07 2.30455e+07 2.26262e+07 2.22046e+07 2.17806e+07 2.13546e+07 2.09268e+07 2.04973e+07 2.00663e+07 1.96335e+07 1.92221e+07 1.88306e+07
          1.84606e+07 1.81135e+07 1.77895e+07 1.74878e+07 1.72064e+07 1.69428e+07 1.66942e+07 1.64574e+07 1.62288e+07 1.60069e+07 1.57907e+07 1.55784e+07
          1.5369e+07 1.5162e+07 1.4957e+07 1.47542e+07 1.45533e+07 1.43544e+07 1.41574e+07 1.3962e+07 1.37676e+07 1.3577e+07 1.33666e+07 1.3577e+07
          1.37676e+07 1.3962e+07 1.41574e+07 1.43544e+07 1.45533e+07 1.47542e+07 1.4957e+07 1.5162e+07 1.5369e+07 1.55784e+07 1.57907e+07 1.60069e+07
          1.62288e+07 1.64574e+07 1.66942e+07 1.69428e+07 1.72064e+07 1.74878e+07 1.77895e+07 1.81135e+07 1.84606e+07 1.88306e+07 1.92221e+07 1.96335e+07
          2.00663e+07 2.04973e+07 2.09268e+07 2.13546e+07 2.17806e+07 2.22046e+07 2.26262e+07 2.30455e+07 2.34624e+07 2.38768e+07 2.42891e+07 2.46994e+07
          2.51081e+07 2.55156e+07 2.5922e+07 2.63277e+07 2.67329e+07 2.71376e+07 2.75419e+07 2.79458e+07 2.83494e+07 2.87526e+07 2.91568e+07 2.95532e+07
          3e+07 2.99707e+07 2.95417e+07 2.91435e+07 2.87396e+07 2.83364e+07 2.79328e+07 2.75289e+07 2.71246e+07 2.67199e+07 2.63148e+07 2.5909e+07
          2.55026e+07 2.50951e+07 2.46864e+07 2.42761e+07 2.38638e+07 2.34494e+07 2.30325e+07 2.26133e+07 2.21916e+07 2.17676e+07 2.13417e+07 2.09138e+07
          2.04844e+07 2.00533e+07 1.96205e+07 1.92092e+07 1.88177e+07 1.84477e+07 1.81005e+07 1.77765e+07 1.74747e+07 1.71934e+07 1.69298e+07 1.66811e+07
          1.64444e+07 1.62157e+07 1.59938e+07 1.57776e+07 1.55652e+07 1.53558e+07 1.51488e+07 1.49439e+07 1.4741e+07 1.45401e+07 1.43412e+07 1.41441e+07
          1.39487e+07 1.37542e+07 1.35643e+07 1.33503e+07 1.35643e+07 1.37542e+07 1.39487e+07 1.41441e+07 1.43412e+07 1.45401e+07 1.4741e+07 1.49439e+07
          1.51488e+07 1.53558e+07 1.55652e+07 1.57776e+07 1.59938e+07 1.62157e+07 1.64444e+07 1.66811e+07 1.69298e+07 1.71934e+07 1.74747e+07 1.77765e+07
          1.81005e+07 1.84477e+07 1.88177e+07 1.92092e+07 1.96205e+07 2.00533e+07 2.04844e+07 2.09138e+07 2.13417e+07 2.17676e+07 2.21916e+07 2.26133e+07
          2.30325e+07 2.34494e+07 2.38638e+07 2.42761e+07 2.46864e+07 2.50951e+07 2.55026e+07 2.5909e+07 2.63148e+07 2.67199e+07 2.71246e+07 2.75289e+07
          2.79328e+07 2.83364e+07 2.87396e+07 2.91435e+07 2.95417e+07 2.99707e+07 2.99427e+07 2.95305e+07 2.91302e+07 2.87267e+07 2.83235e+07 2.79198e+07
          2.75159e+07 2.71116e+07 2.67069e+07 2.63018e+07 2.58961e+07 2.54896e+07 2.50821e+07 2.46734e+07 2.42631e+07 2.38509e+07 2.34364e+07 2.30196e+07
          2.26003e+07 2.21786e+07 2.17547e+07 2.13287e+07 2.09009e+07 2.04714e+07 2.00403e+07 1.96076e+07 1.91963e+07 1.88047e+07 1.84347e+07 1.80875e+07
          1.77635e+07 1.74617e+07 1.71803e+07 1.69168e+07 1.66681e+07 1.64314e+07 1.62027e+07 1.59807e+07 1.57645e+07 1.55521e+07 1.53427e+07 1.51357e+07
          1.49307e+07 1.47278e+07 1.45269e+07 1.4328e+07 1.41308e+07 1.39355e+07 1.37407e+07 1.35518e+07 1.33333e+07 1.35518e+07 1.37407e+07 1.39355e+07
          1.41308e+07 1.4328e+07 1.45269e+07 1.47278e+07 1.49307e+07 1.51357e+07 1.53427e+07 1.55521e+07 1.57645e+07 1.59807e+07 1.62027e+07 1.64314e+07
          1.66681e+07 1.69168e+07 1.71803e+07 1.74617e+07 1.77635e+07 1.80875e+07 1.84347e+07 1.88047e+07 1.91963e+07 1.96076e+07 2.00403e+07 2.04714e+07
          2.09009e+07 2.13287e+07 2.17547e+07 2.21786e+07 2.26003e+07 2.30196e+07 2.34364e+07 2.38509e+07 2.42631e+07 2.46734e+07 2.50821e+07 2.54896e+07
          2.58961e+07 2.63018e+07 2.67069e+07 2.71116e+07 2.75159e+07 2.79198e+07 2.83235e+07 2.87267e+07 2.91302e+07 2.95305e+07 2.99427e+07 2.99161e+07
          2.95194e+07 2.91169e+07 2.87138e+07 2.83105e+07 2.79068e+07 2.75029e+07 2.70986e+07 2.66939e+07 2.62888e+07 2.58831e+07 2.54766e+07 2.50692e+07
          2.46605e+07 2.42501e+07 2.38379e+07 2.34234e+07 2.30066e+07 2.25873e+07 2.21656e+07 2.17417e+07 2.13157e+07 2.08879e+07 2.04584e+07 2.00273e+07
          1.95948e+07 1.91834e+07 1.87918e+07 1.84217e+07 1.80745e+07 1.77505e+07 1.74487e+07 1.71673e+07 1.69037e+07 1.66551e+07 1.64183e+07 1.61896e+07
          1.59676e+07 1.57514e+07 1.55391e+07 1.53296e+07 1.51225e+07 1.49176e+07 1.47146e+07 1.45137e+07 1.43147e+07 1.41176e+07 1.39222e+07 1.37278e+07
          1.35364e+07 1.33333e+07 1.35364e+07 1.37278e+07 1.39222e+07 1.41176e+07 1.43147e+07 1.45137e+07 1.47146e+07 1.49176e+07 1.51225e+07 1.53296e+07
          1.55391e+07 1.57514e+07 1.59676e+07 1.61896e+07 1.64183e+07 1.66551e+07 1.69037e+07 1.71673e+07 1.74487e+07 1.77505e+07 1.80745e+07 1.84217e+07
          1.87918e+07 1.91834e+07 1.95948e+07 2.00273e+07 2.04584e+07 2.08879e+07 2.13157e+07 2.17417e+07 2.21656e+07 2.25873e+07 2.30066e+07 2.34234e+07
          2.38379e+07 2.42501e+07 2.46605e+07 2.50692e+07 2.54766e+07 2.58831e+07 2.62888e+07 2.66939e+07 2.70986e+07 2.75029e+07 2.79068e+07 2.83105e+07
          2.87138e+07 2.91169e+07 2.95194e+07 2.99161e+07 2.98931e+07 2.9508e+07 2.91036e+07 2.87008e+07 2.82975e+07 2.78939e+07 2.74899e+07 2.70856e+07
          2.66809e+07 2.62758e+07 2.58701e+07 2.54636e+07 2.50562e+07 2.46475e+07 2.42372e+07 2.38249e+07 2.34104e+07 2.29936e+07 2.25743e+07 2.21527e+07
          2.17287e+07 2.13027e+07 2.08749e+07 2.04455e+07 2.00143e+07 1.95819e+07 1.91705e+07 1.87789e+07 1.84088e+07 1.80615e+07 1.77375e+07 1.74357e+07
          1.71543e+07 1.68907e+07 1.6642e+07 1.64053e+07 1.61766e+07 1.59546e+07 1.57384e+07 1.5526e+07 1.53165e+07 1.51094e+07 1.49044e+07 1.47014e+07
          1.45005e+07 1.43015e+07 1.41044e+07 1.39088e+07 1.37148e+07 1.3521e+07 1.33333e+07 1.3521e+07 1.37148e+07 1.39088e+07 1.41044e+07 1.43015e+07
          1.45005e+07 1.47014e+07 1.49044e+07 1.51094e+07 1.53165e+07 1.5526e+07 1.57384e+07 1.59546e+07 1.61766e+07 1.64053e+07 1.6642e+07 1.68907e+07
          1.71543e+07 1.74357e+07 1.77375e+07 1.80615e+07 1.84088e+07 1.87789e+07 1.91705e+07 1.95819e+07 2.00143e+07 2.04455e+07 2.08749e+07 2.13027e+07
          2.17287e+07 2.21527e+07 2.25743e+07 2.29936e+07 2.34104e+07 2.38249e+07 2.42372e+07 2.46475e+07 2.50562e+07 2.54636e+07 2.58701e+07 2.62758e+07
          2.66809e+07 2.70856e+07 2.74899e+07 2.78939e+07 2.82975e+07 2.87008e+07 2.91036e+07 2.9508e+07 2.98931e+07 2.98783e+07 2.94953e+07 2.90906e+07
          2.86878e+07 2.82845e+07 2.78809e+07 2.74769e+07 2.70726e+07 2.6668e+07 2.62628e+07 2.58571e+07 2.54506e+07 2.50432e+07 2.46345e+07 2.42242e+07
          2.38119e+07 2.33975e+07 2.29806e+07 2.25614e+07 2.21397e+07 2.17157e+07 2.12898e+07 2.0862e+07 2.04325e+07 2.00014e+07 1.9569e+07 1.91577e+07
          1.8766e+07 1.83958e+07 1.80486e+07 1.77245e+07 1.74227e+07 1.71413e+07 1.68777e+07 1.66291e+07 1.63924e+07 1.61636e+07 1.59416e+07 1.57254e+07
          1.5513e+07 1.53035e+07 1.50964e+07 1.48913e+07 1.46883e+07 1.44874e+07 1.42883e+07 1.40912e+07 1.38956e+07 1.37018e+07 1.35064e+07 1.33333e+07
          1.35064e+07 1.37018e+07 1.38956e+07 1.40912e+07 1.42883e+07 1.44874e+07 1.46883e+07 1.48913e+07 1.50964e+07 1.53035e+07 1.5513e+07 1.57254e+07
          1.59416e+07 1.61636e+07 1.63924e+07 1.66291e+07 1.68777e+07 1.71413e+07 1.74227e+07 1.77245e+07 1.80486e+07 1.83958e+07 1.8766e+07 1.91577e+07
          1.9569e+07 2.00014e+07 2.04325e+07 2.0862e+07 2.12898e+07 2.17157e+07 2.21397e+07 2.25614e+07 2.29806e+07 2.33975e+07 2.38119e+07 2.42242e+07
          2.46345e+07 2.50432e+07 2.54506e+07 2.58571e+07 2.62628e+07 2.6668e+07 2.70726e+07 2.74769e+07 2.78809e+07 2.82845e+07 2.86878e+07 2.90906e+07
          2.94953e+07 2.98783e+07 2.98647e+07 2.94824e+07 2.90776e+07 2.86748e+07 2.82715e+07 2.78679e+07 2.74639e+07 2.70596e+07 2.6655e+07 2.62498e+07
          2.58441e+07 2.54377e+07 2.50302e+07 2.46215e+07 2.42112e+07 2.37989e+07 2.33845e+07 2.29677e+07 2.25484e+07 2.21267e+07 2.17028e+07 2.12768e+07
          2.0849e+07 2.04195e+07 1.99884e+07 1.95561e+07 1.91448e+07 1.87532e+07 1.8383e+07 1.80357e+07 1.77116e+07 1.74098e+07 1.71285e+07 1.68651e+07
          1.66167e+07 1.63803e+07 1.61552e+07 1.59375e+07 1.57213e+07 1.55089e+07 1.52995e+07 1.50924e+07 1.48874e+07 1.46845e+07 1.44836e+07 1.42846e+07
          1.40875e+07 1.38919e+07 1.36983e+07 1.35021e+07 1.33333e+07 1.35021e+07 1.36983e+07 1.38919e+07 1.40875e+07 1.42846e+07 1.44836e+07 1.46845e+07
          1.48874e+07 1.50924e+07 1.52995e+07 1.55089e+07 1.57213e+07 1.59375e+07 1.61552e+07 1.63803e+07 1.66167e+07 1.68651e+07 1.71285e+07 1.74098e+07
          1.77116e+07 1.80357e+07 1.8383e+07 1.87532e+07 1.91448e+07 1.95561e+07 1.99884e+07 2.04195e+07 2.0849e+07 2.12768e+07 2.17028e+07 2.21267e+07
          2.25484e+07 2.29677e+07 2.33845e+07 2.37989e+07 2.42112e+07 2.46215e+07 2.50302e+07 2.54377e+07 2.58441e+07 2.62498e+07 2.6655e+07 2.70596e+07
          2.74639e+07 2.78679e+07 2.82715e+07 2.86748e+07 2.90776e+07 2.94824e+07 2.98647e+07
        </DataArray>
        <DataArray type="Float32" Name="pressure_w" NumberOfComponents="1" format="ascii">
          3e+07 2.96291e+07 3e+07 2.96055e+07 2.92063e+07 2.91942e+07 2.8805e+07 2.87918e+07 2.84013e+07 2.83884e+07 2.79978e+07 2.79848e+07
          2.75938e+07 2.75808e+07 2.71895e+07 2.71765e+07 2.67848e+07 2.67718e+07 2.63797e+07 2.63667e+07 2.5974e+07 2.5961e+07 2.55675e+07 2.55545e+07
          2.516e+07 2.5147e+07 2.47513e+07 2.47383e+07 2.4341e+07 2.4328e+07 2.39287e+07 2.39158e+07 2.35143e+07 2.35013e+07 2.30974e+07 2.30844e+07
          2.26782e+07 2.26652e+07 2.22565e+07 2.22435e+07 2.18325e+07 2.18195e+07 2.14065e+07 2.13935e+07 2.09787e+07 2.09657e+07 2.05492e+07 2.05362e+07
          2.01182e+07 2.01052e+07 1.96853e+07 1.96723e+07 1.9274e+07 1.9261e+07 1.88826e+07 1.88696e+07 1.85127e+07 1.84997e+07 1.81657e+07 1.81526e+07
          1.78417e+07 1.78287e+07 1.75401e+07 1.7527e+07 1.72587e+07 1.72456e+07 1.69952e+07 1.69821e+07 1.67466e+07 1.67335e+07 1.65099e+07 1.64968e+07
          1.62813e+07 1.62681e+07 1.60594e+07 1.60463e+07 1.58433e+07 1.58301e+07 1.5631e+07 1.56178e+07 1.54217e+07 1.54085e+07 1.52147e+07 1.52015e+07
          1.50099e+07 1.49966e+07 1.48071e+07 1.47938e+07 1.46063e+07 1.4593e+07 1.44074e+07 1.43942e+07 1.42104e+07 1.41972e+07 1.4015e+07 1.40018e+07
          1.38209e+07 1.38076e+07 1.36291e+07 1.36159e+07 1.34251e+07 1.34115e+07 1.36291e+07 1.36159e+07 1.38209e+07 1.38076e+07 1.4015e+07 1.40018e+07
          1.42104e+07 1.41972e+07 1.44074e+07 1.43942e+07 1.46063e+07 1.4593e+07 1.48071e+07 1.47938e+07 1.50099e+07 1.49966e+07 1.52147e+07 1.52015e+07
          1.54217e+07 1.54085e+07 1.5631e+07 1.56178e+07 1.58433e+07 1.58301e+07 1.60594e+07 1.60463e+07 1.62813e+07 1.62681e+07 1.65099e+07 1.64968e+07
          1.67466e+07 1.67335e+07 1.69952e+07 1.69821e+07 1.72587e+07 1.72456e+07 1.75401e+07 1.7527e+07 1.78417e+07 1.78287e+07 1.81657e+07 1.81526e+07
          1.85127e+07 1.84997e+07 1.88826e+07 1.88696e+07 1.9274e+07 1.9261e+07 1.96853e+07 1.96723e+07 2.01182e+07 2.01052e+07 2.05492e+07 2.05362e+07
          2.09787e+07 2.09657e+07 2.14065e+07 2.13935e+07 2.18325e+07 2.18195e+07 2.22565e+07 2.22435e+07 2.26782e+07 2.26652e+07 2.30974e+07 2.30844e+07
          2.35143e+07 2.35013e+07 2.39287e+07 2.39158e+07 2.4341e+07 2.4328e+07 2.47513e+07 2.47383e+07 2.516e+07 2.5147e+07 2.55675e+07 2.55545e+07
          2.5974e+07 2.5961e+07 2.63797e+07 2.63667e+07 2.67848e+07 2.67718e+07 2.71895e+07 2.71765e+07 2.75938e+07 2.75808e+07 2.79978e+07 2.79848e+07
          2.84013e+07 2.83884e+07 2.8805e+07 2.87918e+07 2.92063e+07 2.91942e+07 2.96291e+07 2.96055e+07 3e+07 3e+07 3e+07 2.95872e+07
          2.91818e+07 2.87787e+07 2.83754e+07 2.79718e+07 2.75678e+07 2.71635e+07 2.67588e+07 2.63537e+07 2.5948e+07 2.55415e+07 2.51341e+07 2.47254e+07
          2.4315e+07 2.39028e+07 2.34883e+07 2.30715e+07 2.26522e+07 2.22305e+07 2.18066e+07 2.13806e+07 2.09528e+07 2.05233e+07 2.00922e+07 1.96593e+07
          1.9248e+07 1.88566e+07 1.84867e+07 1.81396e+07 1.78156e+07 1.75139e+07 1.72325e+07 1.6969e+07 1.67204e+07 1.64836e+07 1.6255e+07 1.60331e+07
          1.58169e+07 1.56047e+07 1.53953e+07 1.51883e+07 1.49834e+07 1.47806e+07 1.45798e+07 1.43809e+07 1.41839e+07 1.39885e+07 1.37943e+07 1.36028e+07
          1.33972e+07 1.36028e+07 1.37943e+07 1.39885e+07 1.41839e+07 1.43809e+07 1.45798e+07 1.47806e+07 1.49834e+07 1.51883e+07 1.53953e+07 1.56047e+07
          1.58169e+07 1.60331e+07 1.6255e+07 1.64836e+07 1.67204e+07 1.6969e+07 1.72325e+07 1.75139e+07 1.78156e+07 1.81396e+07 1.84867e+07 1.88566e+07
          1.9248e+07 1.96593e+07 2.00922e+07 2.05233e+07 2.09528e+07 2.13806e+07 2.18066e+07 2.22305e+07 2.26522e+07 2.30715e+07 2.34883e+07 2.39028e+07
          2.4315e+07 2.47254e+07 2.51341e+07 2.55415e+07 2.5948e+07 2.63537e+07 2.67588e+07 2.71635e+07 2.75678e+07 2.79718e+07 2.83754e+07 2.87787e+07
          2.91818e+07 2.95872e+07 3e+07 3e+07 2.957e+07 2.91693e+07 2.87656e+07 2.83624e+07 2.79588e+07 2.75548e+07 2.71505e+07 2.67459e+07
          2.63407e+07 2.5935e+07 2.55285e+07 2.51211e+07 2.47124e+07 2.43021e+07 2.38898e+07 2.34753e+07 2.30585e+07 2.26392e+07 2.22175e+07 2.17936e+07
          2.13676e+07 2.09398e+07 2.05103e+07 2.00792e+07 1.96464e+07 1.92351e+07 1.88436e+07 1.84736e+07 1.81265e+07 1.78026e+07 1.75008e+07 1.72195e+07
          1.69559e+07 1.67073e+07 1.64705e+07 1.62419e+07 1.602e+07 1.58038e+07 1.55915e+07 1.53821e+07 1.51751e+07 1.49702e+07 1.47674e+07 1.45665e+07
          1.43677e+07 1.41706e+07 1.39752e+07 1.3781e+07 1.35898e+07 1.33822e+07 1.35898e+07 1.3781e+07 1.39752e+07 1.41706e+07 1.43677e+07 1.45665e+07
          1.47674e+07 1.49702e+07 1.51751e+07 1.53821e+07 1.55915e+07 1.58038e+07 1.602e+07 1.62419e+07 1.64705e+07 1.67073e+07 1.69559e+07 1.72195e+07
          1.75008e+07 1.78026e+07 1.81265e+07 1.84736e+07 1.88436e+07 1.92351e+07 1.96464e+07 2.00792e+07 2.05103e+07 2.09398e+07 2.13676e+07 2.17936e+07
          2.22175e+07 2.26392e+07 2.30585e+07 2.34753e+07 2.38898e+07 2.43021e+07 2.47124e+07 2.51211e+07 2.55285e+07 2.5935e+07 2.63407e+07 2.67459e+07
          2.71505e+07 2.75548e+07 2.79588e+07 2.83624e+07 2.87656e+07 2.91693e+07 2.957e+07 3e+07 3e+07 2.95532e+07 2.91568e+07 2.87526e+07
          2.83494e+07 2.79458e+07 2.75419e+07 2.71376e+07 2.67329e+07 2.63277e+07 2.5922e+07 2.55156e+07 2.51081e+07 2.46994e+07 2.42891e+07 2.38768e+07
          2.34624e+07 2.30455e+07 2.26262e+07 2.22046e+07 2.17806e+07 2.13546e+07 2.09268e+07 2.04973e+07 2.00663e+07 1.96335e+07 1.92221e+07 1.88306e+07
          1.84606e+07 1.81135e+07 1.77895e+07 1.74878e+07 1.72064e+07 1.69428e+07 1.66942e+07 1.64574e+07 1.62288e+07 1.60069e+07 1.57907e+07 1.55784e+07
          1.5369e+07 1.5162e+07 1.4957e+07 1.47542e+07 1.45533e+07 1.43544e+07 1.41574e+07 1.3962e+07 1.37676e+07 1.3577e+07 1.33666e+07 1.3577e+07
          1.37676e+07 1.3962e+07 1.41574e+07 1.43544e+07 1.45533e+07 1.47542e+07 1.4957e+07 1.5162e+07 1.5369e+07 1.55784e+07 1.57907e+07 1.60069e+07
          1.62288e+07 1.64574e+07 1.66942e+07 1.69428e+07 1.72064e+07 1.74878e+07 1.77895e+07 1.81135e+07 1.84606e+07 1.88306e+07 1.92221e+07 1.96335e+07
          2.00663e+07 2.04973e+07 2.09268e+07 2.13546e+07 2.17806e+07 2.22046e+07 2.26262e+07 2.30455e+07 2.34624e+07 2.38768e+07 2.42891e+07 2.46994e+07
          2.51081e+07 2.55156e+07 2.5922e+07 2.63277e+07 2.67329e+07 2.71376e+07 2.75419e+07 2.79458e+07 2.83494e+07 2.87526e+07 2.91568e+07 2.95532e+07
          3e+07 2.99707e+07 2.95417e+07 2.91435e+07 2.87396e+07 2.83364e+07 2.79328e+07 2.75289e+07 2.71246e+07 2.67199e+07 2.63148e+07 2.5909e+07
          2.55026e+07 2.50951e+07 2.46864e+07 2.42761e+07 2.38638e+07 2.34494e+07 2.30325e+07 2.26133e+07 2.21916e+07 2.17676e+07 2.13417e+07 2.09138e+07
          2.04844e+07 2.00533e+07 1.96205e+07 1.92092e+07 1.88177e+07 1.84477e+07 1.81005e+07 1.77765e+07 1.74747e+07 1.71934e+07 1.69298e+07 1.66811e+07
          1.64444e+07 1.62157e+07 1.59938e+07 1.57776e+07 1.55652e+07 1.53558e+07 1.51488e+07 1.49439e+07 1.4741e+07 1.45401e+07 1.43412e+07 1.41441e+07
          1.39487e+07 1.37542e+07 1.35643e+07 1.33503e+07 1.35643e+07 1.37542e+07 1.39487e+07 1.41441e+07 1.43412e+07 1.45401e+07 1.4741e+07 1.49439e+07
          1.51488e+07 1.53558e+07 1.55652e+07 1.57776e+07 1.59938e+07 1.62157e+07 1.64444e+07 1.66811e+07 1.69298e+07 1.71934e+07 1.74747e+07 1.77765e+07
          1.81005e+07 1.84477e+07 1.88177e+07 1.92092e+07 1.96205e+07 2.00533e+07 2.04844e+07 2.09138e+07 2.13417e+07 2.17676e+07 2.21916e+07 2.26133e+07
          2.30325e+07 2.34494e+07 2.38638e+07 2.42761e+07 2.46864e+07 2.50951e+07 2.55026e+07 2.5909e+07 2.63148e+07 2.67199e+07 2.71246e+07 2.75289e+07
          2.79328e+07 2.83364e+07 2.87396e+07 2.91435e+07 2.95417e+07 2.99707e+07 2.99427e+07 2.95305e+07 2.91302e+07 2.87267e+07 2.83235e+07 2.79198e+07
          2.75159e+07 2.71116e+07 2.67069e+07 2.63018e+07 2.58961e+07 2.54896e+07 2.50821e+07 2.46734e+07 2.42631e+07 2.38509e+07 2.34364e+07 2.30196e+07
          2.26003e+07 2.21786e+07 2.17547e+07 2.13287e+07 2.09009e+07 2.04714e+07 2.00403e+07 1.96076e+07 1.91963e+07 1.88047e+07 1.84347e+07 1.80875e+07
          1.77635e+07 1.74617e+07 1.71803e+07 1.69168e+07 1.66681e+07 1.64314e+07 1.62027e+07 1.59807e+07 1.57645e+07 1.55521e+07 1.53427e+07 1.51357e+07
          1.49307e+07 1.47278e+07 1.45269e+07 1.4328e+07 1.41308e+07 1.39355e+07 1.37407e+07 1.35518e+07 1.33333e+07 1.35518e+07 1.37407e+07 1.39355e+07
          1.41308e+07 1.4328e+07 1.45269e+07 1.47278e+07 1.49307e+07 1.51357e+07 1.53427e+07 1.55521e+07 1.57645e+07 1.59807e+07 1.62027e+07 1.64314e+07
          1.66681e+07 1.69168e+07 1.71803e+07 1.74617e+07 1.77635e+07 1.80875e+07 1.84347e+07 1.88047e+07 1.91963e+07 1.96076e+07 2.00403e+07 2.04714e+07
          2.09009e+07 2.13287e+07 2.17547e+07 2.21786e+07 2.26003e+07 2.30196e+07 2.34364e+07 2.38509e+07 2.42631e+07 2.46734e+07 2.50821e+07 2.54896e+07
          2.58961e+07 2.63018e+07 2.67069e+07 2.71116e+07 2.75159e+07 2.79198e+07 2.83235e+07 2.87267e+07 2.91302e+07 2.95305e+07 2.99427e+07 2.99161e+07
          2.95194e+07 2.91169e+07 2.87138e+07 2.83105e+07 2.79068e+07 2.75029e+07 2.70986e+07 2.66939e+07 2.62888e+07 2.58831e+07 2.54766e+07 2.50692e+07
          2.46605e+07 2.42501e+07 2.38379e+07 2.34234e+07 2.30066e+07 2.25873e+07 2.21656e+07 2.17417e+07 2.13157e+07 2.08879e+07 2.04584e+07 2.00273e+07
          1.95948e+07 1.91834e+07 1.87918e+07 1.84217e+07 1.80745e+07 1.77505e+07 1.74487e+07 1.71673e+07 1.69037e+07 1.66551e+07 1.64183e+07 1.61896e+07
          1.59676e+07 1.57514e+07 1.55391e+07 1.53296e+07 1.51225e+07 1.49176e+07 1.47146e+07 1.45137e+07 1.43147e+07 1.41176e+07 1.39222e+07 1.37278e+07
          1.35364e+07 1.33333e+07 1.35364e+07 1.37278e+07 1.39222e+07 1.41176e+07 1.43147e+07 1.45137e+07 1.47146e+07 1.49176e+07 1.51225e+07 1.53296e+07
          1.55391e+07 1.57514e+07 1.59676e+07 1.61896e+07 1.64183e+07 1.66551e+07 1.69037e+07 1.71673e+07 1.74487e+07 1.77505e+07 1.80745e+07 1.84217e+07
          1.87918e+07 1.91834e+07 1.95948e+07 2.00273e+07 2.04584e+07 2.08879e+07 2.13157e+07 2.17417e+07 2.21656e+07 2.25873e+07 2.30066e+07 2.34234e+07
          2.38379e+07 2.42501e+07 2.46605e+07 2.50692e+07 2.54766e+07 2.58831e+07 2.62888e+07 2.66939e+07 2.70986e+07 2.75029e+07 2.79068e+07 2.83105e+07
          2.87138e+07 2.91169e+07 2.95194e+07 2.99161e+07 2.98931e+07 2.9508e+07 2.91036e+07 2.87008e+07 2.82975e+07 2.78939e+07 2.74899e+07 2.70856e+07
          2.66809e+07 2.62758e+07 2.58701e+07 2.54636e+07 2.50562e+07 2.46475e+07 2.42372e+07 2.38249e+07 2.34104e+07 2.29936e+07 2.25743e+07 2.21527e+07
          2.17287e+07 2.13027e+07 2.08749e+07 2.04455e+07 2.00143e+07 1.95819e+07 1.91705e+07 1.87789e+07 1.84088e+07 1.80615e+07 1.77375e+07 1.74357e+07
          1.71543e+07 1.68907e+07 1.6642e+07 1.64053e+07 1.61766e+07 1.59546e+07 1.57384e+07 1.5526e+07 1.53165e+07 1.51094e+07 1.49044e+07 1.47014e+07
          1.45005e+07 1.43015e+07 1.41044e+07 1.39088e+07 1.37148e+07 1.3521e+07 1.33333e+07 1.3521e+07 1.37148e+07 1.39088e+07 1.41044e+07 1.43015e+07
          1.45005e+07 1.47014e+07 1.49044e+07 1.51094e+07 1.53165e+07 1.5526e+07 1.57384e+07 1.59546e+07 1.61766e+07 1.64053e+07 1.6642e+07 1.68907e+07
          1.71543e+07 1.74357e+07 1.77375e+07 1.80615e+07 1.84088e+07 1.87789e+07 1.91705e+07 1.95819e+07 2.00143e+07 2.04455e+07 2.08749e+07 2.13027e+07
          2.17287e+07 2.21527e+07 2.25743e+07 2.29936e+07 2.34104e+07 2.38249e+07 2.42372e+07 2.46475e+07 2.50562e+07 2.54636e+07 2.58701e+07 2.62758e+07
          2.66809e+07 2.70856e+07 2.74899e+07 2.78939e+07 2.82975e+07 2.87008e+07 2.91036e+07 2.9508e+07 2.98931e+07 2.98783e+07 2.94953e+07 2.90906e+07
          2.86878e+07 2.82845e+07 2.78809e+07 2.74769e+07 2.70726e+07 2.6668e+07 2.62628e+07 2.58571e+07 2.54506e+07 2.50432e+07 2.46345e+07 2.42242e+07
          2.38119e+07 2.33975e+07 2.29806e+07 2.25614e+07 2.21397e+07 2.17157e+07 2.12898e+07 2.0862e+07 2.04325e+07 2.00014e+07 1.9569e+07 1.91577e+07
          1.8766e+07 1.83958e+07 1.80486e+07 1.77245e+07 1.74227e+07 1.71413e+07 1.68777e+07 1.66291e+07 1.63924e+07 1.61636e+07 1.59416e+07 1.57254e+07
          1.5513e+07 1.53035e+07 1.50964e+07 1.48913e+07 1.46883e+07 1.44874e+07 1.42883e+07 1.40912e+07 1.38956e+07 1.37018e+07 1.35064e+07 1.33333e+07
          1.35064e+07 1.37018e+07 1.38956e+07 1.40912e+07 1.42883e+07 1.44874e+07 1.46883e+07 1.48913e+07 1.50964e+07 1.53035e+07 1.5513e+07 1.57254e+07
          1.59416e+07 1.61636e+07 1.63924e+07 1.66291e+07 1.68777e+07 1.71413e+07 1.74227e+07 1.77245e+07 1.80486e+07 1.83958e+07 1.8766e+07 1.91577e+07
          1.9569e+07 2.00014e+07 2.04325e+07 2.0862e+07 2.12898e+07 2.17157e+07 2.21397e+07 2.25614e+07 2.29806e+07 2.33975e+07 2.38119e+07 2.42242e+07
          2.46345e+07 2.50432e+07 2.54506e+07 2.58571e+07 2.62628e+07 2.6668e+07 2.70726e+07 2.74769e+07 2.78809e+07 2.82845e+07 2.86878e+07 2.90906e+07
          2.94953e+07 2.98783e+07 2.98647e+07 2.94824e+07 2.90776e+07 2.86748e+07 2.82715e+07 2.78679e+07 2.74639e+07 2.70596e+07 2.6655e+07 2.62498e+07
          2.58441e+07 2.54377e+07 2.50302e+07 2.46215e+07 2.42112e+07 2.37989e+07 2.33845e+07 2.29677e+07 2.25484e+07 2.21267e+07 2.17028e+07 2.12768e+07
          2.0849e+07 2.04195e+07 1.99884e+07 1.95561e+07 1.91448e+07 1.87532e+07 1.8383e+07 1.80357e+07 1.77116e+07 1.74098e+07 1.71285e+07 1.68651e+07
          1.66167e+07 1.63803e+07 1.61552e+07 1.59375e+07 1.57213e+07 1.55089e+07 1.52995e+07 1.50924e+07 1.48874e+07 1.46845e+07 1.44836e+07 1.42846e+07
          1.40875e+07 1.38919e+07 1.36983e+07 1.35021e+07 1.33333e+07 1.35021e+07 1.36983e+07 1.38919e+07 1.40875e+07 1.42846e+07 1.44836e+07 1.46845e+07
          1.48874e+07 1.50924e+07 1.52995e+07 1.55089e+07 1.57213e+07 1.59375e+07 1.61552e+07 1.63803e+07 1.66167e+07 1.68651e+07 1.71285e+07 1.74098e+07
          1.77116e+07 1.80357e+07 1.8383e+07 1.87532e+07 1.91448e+07 1.95561e+07 1.99884e+07 2.04195e+07 2.0849e+07 2.12768e+07 2.17028e+07 2.21267e+07
          2.25484e+07 2.29677e+07 2.33845e+07 2.37989e+07 2.42112e+07 2.46215e+07 2.50302e+07 2.54377e+07 2.58441e+07 2.62498e+07 2.6655e+07 2.70596e+07
          2.74639e+07 2.78679e+07 2.82715e+07 2.86748e+07 2.90776e+07 2.94824e+07 2.98647e+07
        </DataArray>
        <DataArray type="Float32" Name="pressure_g" NumberOfComponents="1" format="ascii">
          3e+07 2.96291e+07 3e+07 2.96055e+07 2.92063e+07 2.91942e+07 2.8805e+07 2.87918e+07 2.84013e+07 2.83884e+07 2.79978e+07 2.79848e+07
          2.75938e+07 2.75808e+07 2.71895e+07 2.71765e+07 2.67848e+07 2.67718e+07 2.63797e+07 2.63667e+07 2.5974e+07 2.5961e+07 2.55675e+07 2.55545e+07
          2.516e+07 2.5147e+07 2.47513e+07 2.47383e+07 2.4341e+07 2.4328e+07 2.39287e+07 2.39158e+07 2.35143e+07 2.35013e+07 2.30974e+07 2.30844e+07
          2.26782e+07 2.26652e+07 2.22565e+07 2.22435e+07 2.18325e+07 2.18195e+07 2.14065e+07 2.13935e+07 2.09787e+07 2.09657e+07 2.05492e+07 2.05362e+07
          2.01182e+07 2.01052e+07 1.96853e+07 1.96723e+07 1.9274e+07 1.9261e+07 1.88826e+07 1.88696e+07 1.85127e+07 1.84997e+07 1.81657e+07 1.81526e+07
          1.78417e+07 1.78287e+07 1.75401e+07 1.7527e+07 1.72587e+07 1.72456e+07 1.69952e+07 1.69821e+07 1.67466e+07 1.67335e+07 1.65099e+07 1.64968e+07
          1.62813e+07 1.62681e+07 1.60594e+07 1.60463e+07 1.58433e+07 1.58301e+07 1.5631e+07 1.56178e+07 1.54217e+07 1.54085e+07 1.52147e+07 1.52015e+07
          1.50099e+07 1.49966e+07 1.48071e+07 1.47938e+07 1.46063e+07 1.4593e+07 1.44074e+07 1.43942e+07 1.42104e+07 1.41972e+07 1.4015e+07 1.40018e+07