<?xml version="1.0"?>
<VTKFile type="UnstructuredGrid" version="0.1" byte_order="LittleEndian">
  <UnstructuredGrid>
    <Piece NumberOfCells="1000" NumberOfPoints="1111">
      <PointData Scalars="pressure_o">
        <DataArray type="Float32" Name="pressure_o" NumberOfComponents="1" format="ascii">
          3e+07 2.7607e+07 3e+07 2.75918e+07 2.54869e+07 2.54744e+07 2.37506e+07 2.37375e+07 2.24362e+07 2.24233e+07 2.15162e+07 2.15032e+07
          2.09167e+07 2.09038e+07 2.0548e+07 2.0535e+07 2.03314e+07 2.03185e+07 2.02091e+07 2.01961e+07 2.01433e+07 2.01303e+07 2.01217e+07 2.01087e+07
          2.01173e+07 2.01043e+07 2.01166e+07 2.01036e+07 2.01165e+07 2.01035e+07 2.01165e+07 2.01035e+07 2.01165e+07 2.01035e+07 2.01165e+07 2.01035e+07
          2.01165e+07 2.01035e+07 2.01165e+07 2.01035e+07 2.01165e+07 2.01035e+07 2.01165e+07 2.01035e+07 2.01165e+07 2.01035e+07 2.01165e+07 2.01035e+07
          2.01165e+07 2.01035e+07 2.01165e+07 2.01035e+07 2.01165e+07 2.01035e+07 2.01165e+07 2.01035e+07 2.01165e+07 2.01035e+07 2.01165e+07 2.01035e+07
          2.01165e+07 2.01035e+07 2.01165e+07 2.01035e+07 2.01165e+07 2.01035e+07 2.01165e+07 2.01035e+07 2.01165e+07 2.01035e+07 2.01165e+07 2.01035e+07
          2.01165e+07 2.01035e+07 2.01165e+07 2.01035e+07 2.01165e+07 2.01035e+07 2.01165e+07 2.01035e+07 2.01165e+07 2.01035e+07 2.01165e+07 2.01035e+07
          2.01165e+07 2.01035e+07 2.01165e+07 2.01035e+07 2.01165e+07 2.01035e+07 2.01162e+07 2.01032e+07 2.01143e+07 2.01014e+07 2.01038e+07 2.00909e+07
          2.00413e+07 2.00284e+07 1.94023e+07 1.93918e+07 1.34652e+07 1.34593e+07 1.94023e+07 1.93918e+07 2.00413e+07 2.00284e+07 2.01038e+07 2.00909e+07
          2.01143e+07 2.01014e+07 2.01162e+07 2.01032e+07 2.01165e+07 2.01035e+07 2.01165e+07 2.01035e+07 2.01165e+07 2.01035e+07 2.01165e+07 2.01035e+07
          2.01165e+07 2.01035e+07 2.01165e+07 2.01035e+07 2.01165e+07 2.01035e+07 2.01165e+07 2.01035e+07 2.01165e+07 2.01035e+07 2.01165e+07 2.01035e+07
          2.01165e+07 2.01035e+07 2.01165e+07 2.01035e+07 2.01165e+07 2.01035e+07 2.01165e+07 2.01035e+07 2.01165e+07 2.01035e+07 2.01165e+07 2.01035e+07
          2.01165e+07 2.01035e+07 2.01165e+07 2.01035e+07 2.01165e+07 2.01035e+07 2.01165e+07 2.01035e+07 2.01165e+07 2.01035e+07 2.01165e+07 2.01035e+07
          2.01165e+07 2.01035e+07 2.01165e+07 2.01035e+07 2.01165e+07 2.01035e+07 2.01165e+07 2.01035e+07 2.01165e+07 2.01035e+07 2.01165e+07 2.01035e+07
          2.01165e+07 2.01035e+07 2.01165e+07 2.01035e+07 2.01165e+07 2.01035e+07 2.01166e+07 2.01036e+07 2.01173e+07 2.01043e+07 2.01217e+07 2.01087e+07
          2.01433e+07 2.01303e+07 2.02091e+07 2.01961e+07 2.03314e+07 2.03185e+07 2.0548e+07 2.0535e+07 2.09167e+07 2.09038e+07 2.15162e+07 2.15032e+07
          2.24362e+07 2.24233e+07 2.37506e+07 2.37375e+07 2.54869e+07 2.54744e+07 2.7607e+07 2.75918e+07 3e+07 3e+07 3e+07 2.75765e+07
          2.54618e+07 2.37245e+07 2.24103e+07 2.14902e+07 2.08908e+07 2.0522e+07 2.03055e+07 2.01831e+07 2.01172e+07 2.00957e+07 2.00913e+07 2.00906e+07
          2.00906e+07 2.00906e+07 2.00906e+07 2.00906e+07 2.00906e+07 2.00906e+07 2.00906e+07 2.00906e+07 2.00906e+07 2.00906e+07 2.00906e+07 2.00906e+07
          2.00906e+07 2.00906e+07 2.00906e+07 2.00906e+07 2.00906e+07 2.00906e+07 2.00906e+07 2.00906e+07 2.00906e+07 2.00906e+07 2.00906e+07 2.00906e+07
          2.00906e+07 2.00906e+07 2.00906e+07 2.00906e+07 2.00906e+07 2.00906e+07 2.00905e+07 2.00903e+07 2.00884e+07 2.00779e+07 2.0016e+07 1.93828e+07
          1.34475e+07 1.93828e+07 2.0016e+07 2.00779e+07 2.00884e+07 2.00903e+07 2.00905e+07 2.00906e+07 2.00906e+07 2.00906e+07 2.00906e+07 2.00906e+07
          2.00906e+07 2.00906e+07 2.00906e+07 2.00906e+07 2.00906e+07 2.00906e+07 2.00906e+07 2.00906e+07 2.00906e+07 2.00906e+07 2.00906e+07 2.00906e+07
          2.00906e+07 2.00906e+07 2.00906e+07 2.00906e+07 2.00906e+07 2.00906e+07 2.00906e+07 2.00906e+07 2.00906e+07 2.00906e+07 2.00906e+07 2.00906e+07
          2.00906e+07 2.00906e+07 2.00913e+07 2.00957e+07 2.01172e+07 2.01831e+07 2.03055e+07 2.0522e+07 2.08908e+07 2.14902e+07 2.24103e+07 2.37245e+07
          2.54618e+07 2.75765e+07 3e+07 3e+07 2.75612e+07 2.54492e+07 2.37114e+07 2.23973e+07 2.14772e+07 2.08778e+07 2.05091e+07 2.02925e+07
          2.01702e+07 2.01042e+07 2.00827e+07 2.00784e+07 2.00777e+07 2.00776e+07 2.00776e+07 2.00776e+07 2.00776e+07 2.00776e+07 2.00776e+07 2.00776e+07
          2.00776e+07 2.00776e+07 2.00776e+07 2.00776e+07 2.00776e+07 2.00776e+07 2.00776e+07 2.00776e+07 2.00776e+07 2.00776e+07 2.00776e+07 2.00776e+07
          2.00776e+07 2.00776e+07 2.00776e+07 2.00776e+07 2.00776e+07 2.00776e+07 2.00776e+07 2.00776e+07 2.00776e+07 2.00776e+07 2.00776e+07 2.00775e+07
          2.00773e+07 2.00755e+07 2.00649e+07 2.00042e+07 1.9375e+07 1.34293e+07 1.9375e+07 2.00042e+07 2.00649e+07 2.00755e+07 2.00773e+07 2.00775e+07
          2.00776e+07 2.00776e+07 2.00776e+07 2.00776e+07 2.00776e+07 2.00776e+07 2.00776e+07 2.00776e+07 2.00776e+07 2.00776e+07 2.00776e+07 2.00776e+07
          2.00776e+07 2.00776e+07 2.00776e+07 2.00776e+07 2.00776e+07 2.00776e+07 2.00776e+07 2.00776e+07 2.00776e+07 2.00776e+07 2.00776e+07 2.00776e+07
          2.00776e+07 2.00776e+07 2.00776e+07 2.00776e+07 2.00776e+07 2.00776e+07 2.00777e+07 2.00784e+07 2.00827e+07 2.01042e+07 2.01702e+07 2.02925e+07
          2.05091e+07 2.08778e+07 2.14772e+07 2.23973e+07 2.37114e+07 2.54492e+07 2.75612e+07 3e+07 3e+07 2.75457e+07 2.54367e+07 2.36984e+07
          2.23844e+07 2.14643e+07 2.08648e+07 2.04961e+07 2.02795e+07 2.01572e+07 2.00911e+07 2.00697e+07 2.00654e+07 2.00647e+07 2.00646e+07 2.00646e+07
          2.00646e+07 2.00646e+07 2.00646e+07 2.00646e+07 2.00646e+07 2.00646e+07 2.00646e+07 2.00646e+07 2.00646e+07 2.00646e+07 2.00646e+07 2.00646e+07
          2.00646e+07 2.00646e+07 2.00646e+07 2.00646e+07 2.00646e+07 2.00646e+07 2.00646e+07 2.00646e+07 2.00646e+07 2.00646e+07 2.00646e+07 2.00646e+07
          2.00646e+07 2.00646e+07 2.00646e+07 2.00646e+07 2.00646e+07 2.00643e+07 2.00626e+07 2.00519e+07 1.99931e+07 1.93682e+07 1.34044e+07 1.93682e+07
          1.99931e+07 2.00519e+07 2.00626e+07 2.00643e+07 2.00646e+07 2.00646e+07 2.00646e+07 2.00646e+07 2.00646e+07 2.00646e+07 2.00646e+07 2.00646e+07
          2.00646e+07 2.00646e+07 2.00646e+07 2.00646e+07 2.00646e+07 2.00646e+07 2.00646e+07 2.00646e+07 2.00646e+07 2.00646e+07 2.00646e+07 2.00646e+07
          2.00646e+07 2.00646e+07 2.00646e+07 2.00646e+07 2.00646e+07 2.00646e+07 2.00646e+07 2.00646e+07 2.00646e+07 2.00646e+07 2.00646e+07 2.00647e+07
          2.00654e+07 2.00697e+07 2.00911e+07 2.01572e+07 2.02795e+07 2.04961e+07 2.08648e+07 2.14643e+07 2.23844e+07 2.36984e+07 2.54367e+07 2.75457e+07
          3e+07 2.99364e+07 2.75411e+07 2.54224e+07 2.36856e+07 2.23714e+07 2.14513e+07 2.08519e+07 2.04831e+07 2.02666e+07 2.01443e+07 2.0078e+07
          2.00567e+07 2.00524e+07 2.00517e+07 2.00516e+07 2.00516e+07 2.00516e+07 2.00516e+07 2.00516e+07 2.00516e+07 2.00516e+07 2.00516e+07 2.00516e+07
          2.00516e+07 2.00516e+07 2.00516e+07 2.00516e+07 2.00516e+07 2.00516e+07 2.00516e+07 2.00516e+07 2.00516e+07 2.00516e+07 2.00516e+07 2.00516e+07
          2.00516e+07 2.00516e+07 2.00516e+07 2.00516e+07 2.00516e+07 2.00516e+07 2.00516e+07 2.00516e+07 2.00516e+07 2.00516e+07 2.00514e+07 2.00496e+07
          2.00389e+07 1.9982e+07 1.93627e+07 1.33726e+07 1.93627e+07 1.9982e+07 2.00389e+07 2.00496e+07 2.00514e+07 2.00516e+07 2.00516e+07 2.00516e+07
          2.00516e+07 2.00516e+07 2.00516e+07 2.00516e+07 2.00516e+07 2.00516e+07 2.00516e+07 2.00516e+07 2.00516e+07 2.00516e+07 2.00516e+07 2.00516e+07
          2.00516e+07 2.00516e+07 2.00516e+07 2.00516e+07 2.00516e+07 2.00516e+07 2.00516e+07 2.00516e+07 2.00516e+07 2.00516e+07 2.00516e+07 2.00516e+07
          2.00516e+07 2.00516e+07 2.00516e+07 2.00516e+07 2.00517e+07 2.00524e+07 2.00567e+07 2.0078e+07 2.01443e+07 2.02666e+07 2.04831e+07 2.08519e+07
          2.14513e+07 2.23714e+07 2.36856e+07 2.54224e+07 2.75411e+07 2.99364e+07 2.98902e+07 2.75335e+07 2.54085e+07 2.36728e+07 2.23584e+07 2.14383e+07
          2.08389e+07 2.04701e+07 2.02536e+07 2.01313e+07 2.00648e+07 2.00436e+07 2.00394e+07 2.00387e+07 2.00387e+07 2.00387e+07 2.00387e+07 2.00387e+07
          2.00387e+07 2.00387e+07 2.00387e+07 2.00387e+07 2.00387e+07 2.00387e+07 2.00387e+07 2.00387e+07 2.00387e+07 2.00387e+07 2.00387e+07 2.00387e+07
          2.00387e+07 2.00387e+07 2.00387e+07 2.00387e+07 2.00387e+07 2.00387e+07 2.00387e+07 2.00387e+07 2.00387e+07 2.00387e+07 2.00387e+07 2.00387e+07
          2.00387e+07 2.00387e+07 2.00386e+07 2.00384e+07 2.00367e+07 2.00261e+07 1.99702e+07 1.93587e+07 1.33333e+07 1.93587e+07 1.99702e+07 2.00261e+07
          2.00367e+07 2.00384e+07 2.00386e+07 2.00387e+07 2.00387e+07 2.00387e+07 2.00387e+07 2.00387e+07 2.00387e+07 2.00387e+07 2.00387e+07 2.00387e+07
          2.00387e+07 2.00387e+07 2.00387e+07 2.00387e+07 2.00387e+07 2.00387e+07 2.00387e+07 2.00387e+07 2.00387e+07 2.00387e+07 2.00387e+07 2.00387e+07
          2.00387e+07 2.00387e+07 2.00387e+07 2.00387e+07 2.00387e+07 2.00387e+07 2.00387e+07 2.00387e+07 2.00387e+07 2.00387e+07 2.00394e+07 2.00436e+07
          2.00648e+07 2.01313e+07 2.02536e+07 2.04701e+07 2.08389e+07 2.14383e+07 2.23584e+07 2.36728e+07 2.54085e+07 2.75335e+07 2.98902e+07 2.98518e+07
          2.75245e+07 2.53949e+07 2.36599e+07 2.23454e+07 2.14254e+07 2.08259e+07 2.04572e+07 2.02406e+07 2.01184e+07 2.00516e+07 2.00306e+07 2.00264e+07
          2.00258e+07 2.00257e+07 2.00257e+07 2.00257e+07 2.00257e+07 2.00257e+07 2.00257e+07 2.00257e+07 2.00257e+07 2.00257e+07 2.00257e+07 2.00257e+07
          2.00257e+07 2.00257e+07 2.00257e+07 2.00257e+07 2.00257e+07 2.00257e+07 2.00257e+07 2.00257e+07 2.00257e+07 2.00257e+07 2.00257e+07 2.00257e+07
          2.00257e+07 2.00257e+07 2.00257e+07 2.00257e+07 2.00257e+07 2.00257e+07 2.00257e+07 2.00257e+07 2.00254e+07 2.00238e+07 2.00132e+07 1.99591e+07
          1.9348e+07 1.33333e+07 1.9348e+07 1.99591e+07 2.00132e+07 2.00238e+07 2.00254e+07 2.00257e+07 2.00257e+07 2.00257e+07 2.00257e+07 2.00257e+07
          2.00257e+07 2.00257e+07 2.00257e+07 2.00257e+07 2.00257e+07 2.00257e+07 2.00257e+07 2.00257e+07 2.00257e+07 2.00257e+07 2.00257e+07 2.00257e+07
          2.00257e+07 2.00257e+07 2.00257e+07 2.00257e+07 2.00257e+07 2.00257e+07 2.00257e+07 2.00257e+07 2.00257e+07 2.00257e+07 2.00257e+07 2.00257e+07
          2.00257e+07 2.00257e+07 2.00258e+07 2.00264e+07 2.00306e+07 2.00516e+07 2.01184e+07 2.02406e+07 2.04572e+07 2.08259e+07 2.14254e+07 2.23454e+07
          2.36599e+07 2.53949e+07 2.75245e+07 2.98518e+07 2.98208e+07 2.75143e+07 2.53815e+07 2.3647e+07 2.23324e+07 2.14124e+07 2.0813e+07 2.04442e+07
          2.02276e+07 2.01055e+07 2.00383e+07 2.00175e+07 2.00135e+07 2.00128e+07 2.00127e+07 2.00127e+07 2.00127e+07 2.00127e+07 2.00127e+07 2.00127e+07
          2.00127e+07 2.00127e+07 2.00127e+07 2.00127e+07 2.00127e+07 2.00127e+07 2.00127e+07 2.00127e+07 2.00127e+07 2.00127e+07 2.00127e+07 2.00127e+07
          2.00127e+07 2.00127e+07 2.00127e+07 2.00127e+07 2.00127e+07 2.00127e+07 2.00127e+07 2.00127e+07 2.00127e+07 2.00127e+07 2.00127e+07 2.00127e+07
          2.00127e+07 2.00125e+07 2.00109e+07 2.00005e+07 1.99476e+07 1.93373e+07 1.33333e+07 1.93373e+07 1.99476e+07 2.00005e+07 2.00109e+07 2.00125e+07
          2.00127e+07 2.00127e+07 2.00127e+07 2.00127e+07 2.00127e+07 2.00127e+07 2.00127e+07 2.00127e+07 2.00127e+07 2.00127e+07 2.00127e+07 2.00127e+07
          2.00127e+07 2.00127e+07 2.00127e+07 2.00127e+07 2.00127e+07 2.00127e+07 2.00127e+07 2.00127e+07 2.00127e+07 2.00127e+07 2.00127e+07 2.00127e+07
          2.00127e+07 2.00127e+07 2.00127e+07 2.00127e+07 2.00127e+07 2.00127e+07 2.00127e+07 2.00128e+07 2.00135e+07 2.00175e+07 2.00383e+07 2.01055e+07
          2.02276e+07 2.04442e+07 2.0813e+07 2.14124e+07 2.23324e+07 2.3647e+07 2.53815e+07 2.75143e+07 2.98208e+07 2.97971e+07 2.7503e+07 2.53683e+07
          2.36341e+07 2.23194e+07 2.13994e+07 2.08e+07 2.04312e+07 2.02147e+07 2.00925e+07 2.0025e+07 2.00044e+07 2.00005e+07 1.99998e+07 1.99998e+07
          1.99998e+07 1.99998e+07 1.99998e+07 1.99998e+07 1.99998e+07 1.99998e+07 1.99998e+07 1.99998e+07 1.99998e+07 1.99998e+07 1.99998e+07 1.99998e+07
          1.99998e+07 1.99998e+07 1.99998e+07 1.99998e+07 1.99998e+07 1.99998e+07 1.99998e+07 1.99998e+07 1.99998e+07 1.99998e+07 1.99998e+07 1.99998e+07
          1.99998e+07 1.99998e+07 1.99998e+07 1.99998e+07 1.99998e+07 1.99997e+07 1.99995e+07 1.99979e+07 1.99879e+07 1.99357e+07 1.93267e+07 1.33333e+07
          1.93267e+07 1.99357e+07 1.99879e+07 1.99979e+07 1.99995e+07 1.99997e+07 1.99998e+07 1.99998e+07 1.99998e+07 1.99998e+07 1.99998e+07 1.99998e+07
          1.99998e+07 1.99998e+07 1.99998e+07 1.99998e+07 1.99998e+07 1.99998e+07 1.99998e+07 1.99998e+07 1.99998e+07 1.99998e+07 1.99998e+07 1.99998e+07
          1.99998e+07 1.99998e+07 1.99998e+07 1.99998e+07 1.99998e+07 1.99998e+07 1.99998e+07 1.99998e+07 1.99998e+07 1.99998e+07 1.99998e+07 1.99998e+07
          1.99998e+07 2.00005e+07 2.00044e+07 2.0025e+07 2.00925e+07 2.02147e+07 2.04312e+07 2.08e+07 2.13994e+07 2.23194e+07 2.36341e+07 2.53683e+07
          2.7503e+07 2.97971e+07 2.97805e+07 2.74906e+07 2.53552e+07 2.36211e+07 2.23064e+07 2.13864e+07 2.0787e+07 2.04183e+07 2.02017e+07 2.00796e+07
          2.00117e+07 1.99914e+07 1.99875e+07 1.99869e+07 1.99868e+07 1.99868e+07 1.99868e+07 1.99868e+07 1.99868e+07 1.99868e+07 1.99868e+07 1.99868e+07
          1.99868e+07 1.99868e+07 1.99868e+07 1.99868e+07 1.99868e+07 1.99868e+07 1.99868e+07 1.99868e+07 1.99868e+07 1.99868e+07 1.99868e+07 1.99868e+07
          1.99868e+07 1.99868e+07 1.99868e+07 1.99868e+07 1.99868e+07 1.99868e+07 1.99868e+07 1.99868e+07 1.99868e+07 1.99868e+07 1.99868e+07 1.99865e+07
          1.9985e+07 1.99752e+07 1.99234e+07 1.93161e+07 1.33333e+07 1.93161e+07 1.99234e+07 1.99752e+07 1.9985e+07 1.99865e+07 1.99868e+07 1.99868e+07
          1.99868e+07 1.99868e+07 1.99868e+07 1.99868e+07 1.99868e+07 1.99868e+07 1.99868e+07 1.99868e+07 1.99868e+07 1.99868e+07 1.99868e+07 1.99868e+07
          1.99868e+07 1.99868e+07 1.99868e+07 1.99868e+07 1.99868e+07 1.99868e+07 1.99868e+07 1.99868e+07 1.99868e+07 1.99868e+07 1.99868e+07 1.99868e+07
          1.99868e+07 1.99868e+07 1.99868e+07 1.99868e+07 1.99868e+07 1.99869e+07 1.99875e+07 1.99914e+07 2.00117e+07 2.00796e+07 2.02017e+07 2.04183e+07
          2.0787e+07 2.13864e+07 2.23064e+07 2.36211e+07 2.53552e+07 2.74906e+07 2.97805e+07
        </DataArray>
        <DataArray type="Float32" Name="pressure_w" NumberOfComponents="1" format="ascii">
          3e+07 2.7607e+07 3e+07 2.75918e+07 2.54869e+07 2.54744e+07 2.37506e+07 2.37375e+07 2.24362e+07 2.24233e+07 2.15162e+07 2.15032e+07
          2.09167e+07 2.09038e+07 2.0548e+07 2.0535e+07 2.03314e+07 2.03185e+07 2.02091e+07 2.01961e+07 2.01433e+07 2.01303e+07 2.01217e+07 2.01087e+07
          2.01173e+07 2.01043e+07 2.01166e+07 2.01036e+07 2.01165e+07 2.01035e+07 2.01165e+07 2.01035e+07 2.01165e+07 2.01035e+07 2.01165e+07 2.01035e+07
          2.01165e+07 2.01035e+07 2.01165e+07 2.01035e+07 2.01165e+07 2.01035e+07 2.01165e+07 2.01035e+07 2.01165e+07 2.01035e+07 2.01165e+07 2.01035e+07
          2.01165e+07 2.01035e+07 2.01165e+07 2.01035e+07 2.01165e+07 2.01035e+07 2.01165e+07 2.01035e+07 2.01165e+07 2.01035e+07 2.01165e+07 2.01035e+07
          2.01165e+07 2.01035e+07 2.01165e+07 2.01035e+07 2.01165e+07 2.01035e+07 2.01165e+07 2.01035e+07 2.01165e+07 2.01035e+07 2.01165e+07 2.01035e+07
          2.01165e+07 2.01035e+07 2.01165e+07 2.01035e+07 2.01165e+07 2.01035e+07 2.01165e+07 2.01035e+07 2.01165e+07 2.01035e+07 2.01165e+07 2.01035e+07
          2.01165e+07 2.01035e+07 2.01165e+07 2.01035e+07 2.01165e+07 2.01035e+07 2.01162e+07 2.01032e+07 2.01143e+07 2.01014e+07 2.01038e+07 2.00909e+07
          2.00413e+07 2.00284e+07 1.94023e+07 1.93918e+07 1.34652e+07 1.34593e+07 1.94023e+07 1.93918e+07 2.00413e+07 2.00284e+07 2.01038e+07 2.00909e+07
          2.01143e+07 2.01014e+07 2.01162e+07 2.01032e+07 2.01165e+07 2.01035e+07 2.01165e+07 2.01035e+07 2.01165e+07 2.01035e+07 2.01165e+07 2.01035e+07
          2.01165e+07 2.01035e+07 2.01165e+07 2.01035e+07 2.01165e+07 2.01035e+07 2.01165e+07 2.01035e+07 2.01165e+07 2.01035e+07 2.01165e+07 2.01035e+07
          2.01165e+07 2.01035e+07 2.01165e+07 2.01035e+07 2.01165e+07 2.01035e+07 2.01165e+07 2.01035e+07 2.01165e+07 2.01035e+07 2.01165e+07 2.01035e+07
          2.01165e+07 2.01035e+07 2.01165e+07 2.01035e+07 2.01165e+07 2.01035e+07 2.01165e+07 2.01035e+07 2.01165e+07 2.01035e+07 2.01165e+07 2.01035e+07
          2.01165e+07 2.01035e+07 2.01165e+07 2.01035e+07 2.01165e+07 2.01035e+07 2.01165e+07 2.01035e+07 2.01165e+07 2.01035e+07 2.01165e+07 2.01035e+07
          2.01165e+07 2.01035e+07 2.01165e+07 2.01035e+07 2.01165e+07 2.01035e+07 2.01166e+07 2.01036e+07 2.01173e+07 2.01043e+07 2.01217e+07 2.01087e+07
          2.01433e+07 2.01303e+07 2.02091e+07 2.01961e+07 2.03314e+07 2.03185e+07 2.0548e+07 2.0535e+07 2.09167e+07 2.09038e+07 2.15162e+07 2.15032e+07
          2.24362e+07 2.24233e+07 2.37506e+07 2.37375e+07 2.54869e+07 2.54744e+07 2.7607e+07 2.75918e+07 3e+07 3e+07 3e+07 2.75765e+07
          2.54618e+07 2.37245e+07 2.24103e+07 2.14902e+07 2.08908e+07 2.0522e+07 2.03055e+07 2.01831e+07 2.01172e+07 2.00957e+07 2.00913e+07 2.00906e+07
          2.00906e+07 2.00906e+07 2.00906e+07 2.00906e+07 2.00906e+07 2.00906e+07 2.00906e+07 2.00906e+07 2.00906e+07 2.00906e+07 2.00906e+07 2.00906e+07
          2.00906e+07 2.00906e+07 2.00906e+07 2.00906e+07 2.00906e+07 2.00906e+07 2.00906e+07 2.00906e+07 2.00906e+07 2.00906e+07 2.00906e+07 2.00906e+07
          2.00906e+07 2.00906e+07 2.00906e+07 2.00906e+07 2.00906e+07 2.00906e+07 2.00905e+07 2.00903e+07 2.00884e+07 2.00779e+07 2.0016e+07 1.93828e+07
          1.34475e+07 1.93828e+07 2.0016e+07 2.00779e+07 2.00884e+07 2.00903e+07 2.00905e+07 2.00906e+07 2.00906e+07 2.00906e+07 2.00906e+07 2.00906e+07
          2.00906e+07 2.00906e+07 2.00906e+07 2.00906e+07 2.00906e+07 2.00906e+07 2.00906e+07 2.00906e+07 2.00906e+07 2.00906e+07 2.00906e+07 2.00906e+07
          2.00906e+07 2.00906e+07 2.00906e+07 2.00906e+07 2.00906e+07 2.00906e+07 2.00906e+07 2.00906e+07 2.00906e+07 2.00906e+07 2.00906e+07 2.00906e+07
          2.00906e+07 2.00906e+07 2.00913e+07 2.00957e+07 2.01172e+07 2.01831e+07 2.03055e+07 2.0522e+07 2.08908e+07 2.14902e+07 2.24103e+07 2.37245e+07
          2.54618e+07 2.75765e+07 3e+07 3e+07 2.75612e+07 2.54492e+07 2.37114e+07 2.23973e+07 2.14772e+07 2.08778e+07 2.05091e+07 2.02925e+07
          2.01702e+07 2.01042e+07 2.00827e+07 2.00784e+07 2.00777e+07 2.00776e+07 2.00776e+07 2.00776e+07 2.00776e+07 2.00776e+07 2.00776e+07 2.00776e+07
          2.00776e+07 2.00776e+07 2.00776e+07 2.00776e+07 2.00776e+07 2.00776e+07 2.00776e+07 2.00776e+07 2.00776e+07 2.00776e+07 2.00776e+07 2.00776e+07
          2.00776e+07 2.00776e+07 2.00776e+07 2.00776e+07 2.00776e+07 2.00776e+07 2.00776e+07 2.00776e+07 2.00776e+07 2.00776e+07 2.00776e+07 2.00775e+07
          2.00773e+07 2.00755e+07 2.00649e+07 2.00042e+07 1.9375e+07 1.34293e+07 1.9375e+07 2.00042e+07 2.00649e+07 2.00755e+07 2.00773e+07 2.00775e+07
          2.00776e+07 2.00776e+07 2.00776e+07 2.00776e+07 2.00776e+07 2.00776e+07 2.00776e+07 2.00776e+07 2.00776e+07 2.00776e+07 2.00776e+07 2.00776e+07
          2.00776e+07 2.00776e+07 2.00776e+07 2.00776e+07 2.00776e+07 2.00776e+07 2.00776e+07 2.00776e+07 2.00776e+07 2.00776e+07 2.00776e+07 2.00776e+07
          2.00776e+07 2.00776e+07 2.00776e+07 2.00776e+07 2.00776e+07 2.00776e+07 2.00777e+07 2.00784e+07 2.00827e+07 2.01042e+07 2.01702e+07 2.02925e+07
          2.05091e+07 2.08778e+07 2.14772e+07 2.23973e+07 2.37114e+07 2.54492e+07 2.75612e+07 3e+07 3e+07 2.75457e+07 2.54367e+07 2.36984e+07
          2.23844e+07 2.14643e+07 2.08648e+07 2.04961e+07 2.02795e+07 2.01572e+07 2.00911e+07 2.00697e+07 2.00654e+07 2.00647e+07 2.00646e+07 2.00646e+07
          2.00646e+07 2.00646e+07 2.00646e+07 2.00646e+07 2.00646e+07 2.00646e+07 2.00646e+07 2.00646e+07 2.00646e+07 2.00646e+07 2.00646e+07 2.00646e+07
          2.00646e+07 2.00646e+07 2.00646e+07 2.00646e+07 2.00646e+07 2.00646e+07 2.00646e+07 2.00646e+07 2.00646e+07 2.00646e+07 2.00646e+07 2.00646e+07
          2.00646e+07 2.00646e+07 2.00646e+07 2.00646e+07 2.00646e+07 2.00643e+07 2.00626e+07 2.00519e+07 1.99931e+07 1.93682e+07 1.34044e+07 1.93682e+07
          1.99931e+07 2.00519e+07 2.00626e+07 2.00643e+07 2.00646e+07 2.00646e+07 2.00646e+07 2.00646e+07 2.00646e+07 2.00646e+07 2.00646e+07 2.00646e+07
          2.00646e+07 2.00646e+07 2.00646e+07 2.00646e+07 2.00646e+07 2.00646e+07 2.00646e+07 2.00646e+07 2.00646e+07 2.00646e+07 2.00646e+07 2.00646e+07
          2.00646e+07 2.00646e+07 2.00646e+07 2.00646e+07 2.00646e+07 2.00646e+07 2.00646e+07 2.00646e+07 2.00646e+07 2.00646e+07 2.00646e+07 2.00647e+07
          2.00654e+07 2.00697e+07 2.00911e+07 2.01572e+07 2.02795e+07 2.04961e+07 2.08648e+07 2.14643e+07 2.23844e+07 2.36984e+07 2.54367e+07 2.75457e+07
          3e+07 2.99364e+07 2.75411e+07 2.54224e+07 2.36856e+07 2.23714e+07 2.14513e+07 2.08519e+07 2.04831e+07 2.02666e+07 2.01443e+07 2.0078e+07
          2.00567e+07 2.00524e+07 2.00517e+07 2.00516e+07 2.00516e+07 2.00516e+07 2.00516e+07 2.00516e+07 2.00516e+07 2.00516e+07 2.00516e+07 2.00516e+07
          2.00516e+07 2.00516e+07 2.00516e+07 2.00516e+07 2.00516e+07 2.00516e+07 2.00516e+07 2.00516e+07 2.00516e+07 2.00516e+07 2.00516e+07 2.00516e+07
          2.00516e+07 2.00516e+07 2.00516e+07 2.00516e+07 2.00516e+07 2.00516e+07 2.00516e+07 2.00516e+07 2.00516e+07 2.00516e+07 2.00514e+07 2.00496e+07
          2.00389e+07 1.9982e+07 1.93627e+07 1.33726e+07 1.93627e+07 1.9982e+07 2.00389e+07 2.00496e+07 2.00514e+07 2.00516e+07 2.00516e+07 2.00516e+07
          2.00516e+07 2.00516e+07 2.00516e+07 2.00516e+07 2.00516e+07 2.00516e+07 2.00516e+07 2.00516e+07 2.00516e+07 2.00516e+07 2.00516e+07 2.00516e+07
          2.00516e+07 2.00516e+07 2.00516e+07 2.00516e+07 2.00516e+07 2.00516e+07 2.00516e+07 2.00516e+07 2.00516e+07 2.00516e+07 2.00516e+07 2.00516e+07
          2.00516e+07 2.00516e+07 2.00516e+07 2.00516e+07 2.00517e+07 2.00524e+07 2.00567e+07 2.0078e+07 2.01443e+07 2.02666e+07 2.04831e+07 2.08519e+07
          2.14513e+07 2.23714e+07 2.36856e+07 2.54224e+07 2.75411e+07 2.99364e+07 2.98902e+07 2.75335e+07 2.54085e+07 2.36728e+07 2.23584e+07 2.14383e+07
          2.08389e+07 2.04701e+07 2.02536e+07 2.01313e+07 2.00648e+07 2.00436e+07 2.00394e+07 2.00387e+07 2.00387e+07 2.00387e+07 2.00387e+07 2.00387e+07
          2.00387e+07 2.00387e+07 2.00387e+07 2.00387e+07 2.00387e+07 2.00387e+07 2.00387e+07 2.00387e+07 2.00387e+07 2.00387e+07 2.00387e+07 2.00387e+07
          2.00387e+07 2.00387e+07 2.00387e+07 2.00387e+07 2.00387e+07 2.00387e+07 2.00387e+07 2.00387e+07 2.00387e+07 2.00387e+07 2.00387e+07 2.00387e+07
          2.00387e+07 2.00387e+07 2.00386e+07 2.00384e+07 2.00367e+07 2.00261e+07 1.99702e+07 1.93587e+07 1.33333e+07 1.93587e+07 1.99702e+07 2.00261e+07
          2.00367e+07 2.00384e+07 2.00386e+07 2.00387e+07 2.00387e+07 2.00387e+07 2.00387e+07 2.00387e+07 2.00387e+07 2.00387e+07 2.00387e+07 2.00387e+07
          2.00387e+07 2.00387e+07 2.00387e+07 2.00387e+07 2.00387e+07 2.00387e+07 2.00387e+07 2.00387e+07 2.00387e+07 2.00387e+07 2.00387e+07 2.00387e+07
          2.00387e+07 2.00387e+07 2.00387e+07 2.00387e+07 2.00387e+07 2.00387e+07 2.00387e+07 2.00387e+07 2.00387e+07 2.00387e+07 2.00394e+07 2.00436e+07
          2.00648e+07 2.01313e+07 2.02536e+07 2.04701e+07 2.08389e+07 2.14383e+07 2.23584e+07 2.36728e+07 2.54085e+07 2.75335e+07 2.98902e+07 2.98518e+07
          2.75245e+07 2.53949e+07 2.36599e+07 2.23454e+07 2.14254e+07 2.08259e+07 2.04572e+07 2.02406e+07 2.01184e+07 2.00516e+07 2.00306e+07 2.00264e+07
          2.00258e+07 2.00257e+07 2.00257e+07 2.00257e+07 2.00257e+07 2.00257e+07 2.00257e+07 2.00257e+07 2.00257e+07 2.00257e+07 2.00257e+07 2.00257e+07
          2.00257e+07 2.00257e+07 2.00257e+07 2.00257e+07 2.00257e+07 2.00257e+07 2.00257e+07 2.00257e+07 2.00257e+07 2.00257e+07 2.00257e+07 2.00257e+07
          2.00257e+07 2.00257e+07 2.00257e+07 2.00257e+07 2.00257e+07 2.00257e+07 2.00257e+07 2.00257e+07 2.00254e+07 2.00238e+07 2.00132e+07 1.99591e+07
          1.9348e+07 1.33333e+07 1.9348e+07 1.99591e+07 2.00132e+07 2.00238e+07 2.00254e+07 2.00257e+07 2.00257e+07 2.00257e+07 2.00257e+07 2.00257e+07
          2.00257e+07 2.00257e+07 2.00257e+07 2.00257e+07 2.00257e+07 2.00257e+07 2.00257e+07 2.00257e+07 2.00257e+07 2.00257e+07 2.00257e+07 2.00257e+07
          2.00257e+07 2.00257e+07 2.00257e+07 2.00257e+07 2.00257e+07 2.00257e+07 2.00257e+07 2.00257e+07 2.00257e+07 2.00257e+07 2.00257e+07 2.00257e+07
          2.00257e+07 2.00257e+07 2.00258e+07 2.00264e+07 2.00306e+07 2.00516e+07 2.01184e+07 2.02406e+07 2.04572e+07 2.08259e+07 2.14254e+07 2.23454e+07
          2.36599e+07 2.53949e+07 2.75245e+07 2.98518e+07 2.98208e+07 2.75143e+07 2.53815e+07 2.3647e+07 2.23324e+07 2.14124e+07 2.0813e+07 2.04442e+07
          2.02276e+07 2.01055e+07 2.00383e+07 2.00175e+07 2.00135e+07 2.00128e+07 2.00127e+07 2.00127e+07 2.00127e+07 2.00127e+07 2.00127e+07 2.00127e+07
          2.00127e+07 2.00127e+07 2.00127e+07 2.00127e+07 2.00127e+07 2.00127e+07 2.00127e+07 2.00127e+07 2.00127e+07 2.00127e+07 2.00127e+07 2.00127e+07
          2.00127e+07 2.00127e+07 2.00127e+07 2.00127e+07 2.00127e+07 2.00127e+07 2.00127e+07 2.00127e+07 2.00127e+07 2.00127e+07 2.00127e+07 2.00127e+07
          2.00127e+07 2.00125e+07 2.00109e+07 2.00005e+07 1.99476e+07 1.93373e+07 1.33333e+07 1.93373e+07 1.99476e+07 2.00005e+07 2.00109e+07 2.00125e+07
          2.00127e+07 2.00127e+07 2.00127e+07 2.00127e+07 2.00127e+07 2.00127e+07 2.00127e+07 2.00127e+07 2.00127e+07 2.00127e+07 2.00127e+07 2.00127e+07
          2.00127e+07 2.00127e+07 2.00127e+07 2.00127e+07 2.00127e+07 2.00127e+07 2.00127e+07 2.00127e+07 2.00127e+07 2.00127e+07 2.00127e+07 2.00127e+07
          2.00127e+07 2.00127e+07 2.00127e+07 2.00127e+07 2.00127e+07 2.00127e+07 2.00127e+07 2.00128e+07 2.00135e+07 2.00175e+07 2.00383e+07 2.01055e+07
          2.02276e+07 2.04442e+07 2.0813e+07 2.14124e+07 2.23324e+07 2.3647e+07 2.53815e+07 2.75143e+07 2.98208e+07 2.97971e+07 2.7503e+07 2.53683e+07
          2.36341e+07 2.23194e+07 2.13994e+07 2.08e+07 2.04312e+07 2.02147e+07 2.00925e+07 2.0025e+07 2.00044e+07 2.00005e+07 1.99998e+07 1.99998e+07
          1.99998e+07 1.99998e+07 1.99998e+07 1.99998e+07 1.99998e+07 1.99998e+07 1.99998e+07 1.99998e+07 1.99998e+07 1.99998e+07 1.99998e+07 1.99998e+07
          1.99998e+07 1.99998e+07 1.99998e+07 1.99998e+07 1.99998e+07 1.99998e+07 1.99998e+07 1.99998e+07 1.99998e+07 1.99998e+07 1.99998e+07 1.99998e+07
          1.99998e+07 1.99998e+07 1.99998e+07 1.99998e+07 1.99998e+07 1.99997e+07 1.99995e+07 1.99979e+07 1.99879e+07 1.99357e+07 1.93267e+07 1.33333e+07
          1.93267e+07 1.99357e+07 1.99879e+07 1.99979e+07 1.99995e+07 1.99997e+07 1.99998e+07 1.99998e+07 1.99998e+07 1.99998e+07 1.99998e+07 1.99998e+07
          1.99998e+07 1.99998e+07 1.99998e+07 1.99998e+07 1.99998e+07 1.99998e+07 1.99998e+07 1.99998e+07 1.99998e+07 1.99998e+07 1.99998e+07 1.99998e+07
          1.99998e+07 1.99998e+07 1.99998e+07 1.99998e+07 1.99998e+07 1.99998e+07 1.99998e+07 1.99998e+07 1.99998e+07 1.99998e+07 1.99998e+07 1.99998e+07
          1.99998e+07 2.00005e+07 2.00044e+07 2.0025e+07 2.00925e+07 2.02147e+07 2.04312e+07 2.08e+07 2.13994e+07 2.23194e+07 2.36341e+07 2.53683e+07
          2.7503e+07 2.97971e+07 2.97805e+07 2.74906e+07 2.53552e+07 2.36211e+07 2.23064e+07 2.13864e+07 2.0787e+07 2.04183e+07 2.02017e+07 2.00796e+07
          2.00117e+07 1.99914e+07 1.99875e+07 1.99869e+07 1.99868e+07 1.99868e+07 1.99868e+07 1.99868e+07 1.99868e+07 1.99868e+07 1.99868e+07 1.99868e+07
          1.99868e+07 1.99868e+07 1.99868e+07 1.99868e+07 1.99868e+07 1.99868e+07 1.99868e+07 1.99868e+07 1.99868e+07 1.99868e+07 1.99868e+07 1.99868e+07
          1.99868e+07 1.99868e+07 1.99868e+07 1.99868e+07 1.99868e+07 1.99868e+07 1.99868e+07 1.99868e+07 1.99868e+07 1.99868e+07 1.99868e+07 1.99865e+07
          1.9985e+07 1.99752e+07 1.99234e+07 1.93161e+07 1.33333e+07 1.93161e+07 1.99234e+07 1.99752e+07 1.9985e+07 1.99865e+07 1.99868e+07 1.99868e+07
          1.99868e+07 1.99868e+07 1.99868e+07 1.99868e+07 1.99868e+07 1.99868e+07 1.99868e+07 1.99868e+07 1.99868e+07 1.99868e+07 1.99868e+07 1.99868e+07
          1.99868e+07 1.99868e+07 1.99868e+07 1.99868e+07 1.99868e+07 1.99868e+07 1.99868e+07 1.99868e+07 1.99868e+07 1.99868e+07 1.99868e+07 1.99868e+07
          1.99868e+07 1.99868e+07 1.99868e+07 1.99868e+07 1.99868e+07 1.99869e+07 1.99875e+07 1.99914e+07 2.00117e+07 2.00796e+07 2.02017e+07 2.04183e+07
          2.0787e+07 2.13864e+07 2.23064e+07 2.36211e+07 2.53552e+07 2.74906e+07 2.97805e+07
        </DataArray>
        <DataArray type="Float32" Name="pressure_g" NumberOfComponents="1" format="ascii">
          3e+07 2.7607e+07 3e+07 2.75918e+07 2.54869e+07 2.54744e+07 2.37506e+07 2.37375e+07 2.24362e+07 2.24233e+07 2.15162e+07 2.15032e+07
          2.09167e+07 2.09038e+07 2.0548e+07 2.0535e+07 2.03314e+07 2.03185e+07 2.02091e+07 2.01961e+07 2.01433e+07 2.01303e+07 2.01217e+07 2.01087e+07
          2.01173e+07 2.01043e+07 2.01166e+07 2.01036e+07 2.01165e+07 2.01035e+07 2.01165e+07 2.01035e+07 2.01165e+07 2.01035e+07 2.01165e+07 2.01035e+07
          2.01165e+07 2.01035e+07 2.01165e+07 2.01035e+07 2.01165e+07 2.01035e+07 2.01165e+07 2.01035e+07 2.01165e+07 2.01035e+07 2.01165e+07 2.01035e+07
          2.01165e+07 2.01035e+07 2.01165e+07 2.01035e+07 2.01165e+07 2.01035e+07 2.01165e+07 2.01035e+07 2.01165e+07 2.01035e+07 2.01165e+07 2.01035e+07
          2.01165e+07 2.01035e+07 2.01165e+07 2.01035e+07 2.01165e+07 2.01035e+07 2.01165e+07 2.01035e+07 2.01165e+07 2.01035e+07 2.01165e+07 2.01035e+07
          2.01165e+07 2.01035e+07 2.01165e+07 2.01035e+07 2.01165e+07 2.01035e+07 2.01165e+07 2.01035e+07 2.01165e+07 2.01035e+07 2.01165e+07 2.01035e+07