<?xml version="1.0"?>
<VTKFile type="UnstructuredGrid" version="0.1" byte_order="LittleEndian">
  <UnstructuredGrid>
    <Piece NumberOfCells="1024" NumberOfPoints="1089">
      <PointData Scalars="pressure_N2" Vectors="velocity_N2">
        <DataArray type="Float32" Name="pressure_N2" NumberOfComponents="1" format="ascii">
          100000 100000 100000 100000 100000 100000 100000 100000 100000 100000 100000 100000
          100000 100000 100000 100000 100000 100000 100000 100000 100000 100000 100000 100000
          100000 100000 100000 100000 100000 100000 100000 100000 100000 100000 100000 100000
          100000 100000 100000 100000 100000 100000 100000 100000 100000 100000 100000 100000
          100000 100000 100000 100000 100000 100000 100000 100000 100000 100000 100000 100000
          100000 100000 100000 100000 100000 100000 100000 100000 100000 100000 100000 100000
          100000 100000 100000 100000 100000 100000 100000 100000 100000 100000 100000 100000
          100000 100000 100000 100000 100000 100000 100000 100000 100000 100000 100000 100000
          100000 100000 100000 100000 100000 100000 100000 100000 100000 100000 100000 100000
          100000 100000 100000 100000 100000 100000 100000 100000 100000 100000 100000 100000
          100000 100000 100000 100000 100000 100000 100000 100000 100000 100000 100000 100000
          100000 100000 100000 100000 100000 100000 100000 100000 100000 100000 100000 100000
          100000 100000 100000 100000 100000 100000 100000 100000 100000 100000 100000 100000
          100000 100000 100000 100000 100000 100000 100000 100000 100000 100000 100000 100000
          100000 100000 100000 100000 100000 100000 100000 100000 100000 100000 100000 100000
          100000 100000 100000 100000 100000 100000 100000 100000 100000 100000 100000 100000
          100000 100000 100000 100000 100000 100000 100000 100000 100000 100000 100000 100000
          100000 100000 100000 100000 100000 100000 100000 100000 100000 100000 100000 100000
          100000 100000 100000 100000 100000 100000 100000 100000 100000 100000 100000 100000
          100000 100000 100000 100000 100000 100000 100000 100000 100000 100000 100000 100000
          100000 100000 100000 100000 100000 100000 100000 100000 100000 100000 100000 100000
          100000 100000 100000 100000 100000 100000 100000 100000 100000 100000 100000 100000
          100000 100000 100000 100000 100000 100000 100000 100000 100000 100000 100000 100000
          100000 100000 100000 100000 100000 100000 100000 100000 100000 100000 100000 100000
          100000 100000 100000 100000 100000 100000 100000 100000 100000 100000 100000 100000
          100000 100000 100000 100000 100000 100000 100000 100000 100000 100000 100000 100000
          100000 100000 100000 100000 100000 100000 100000 100000 100000 100000 100000 100000
          100000 100000 100000 100000 100000 100000 100000 100000 100000 100000 100000 100000
          100000 100000 100000 100000 100000 100000 100000 100000 100000 100000 100000 100000
          100000 100000 100000 100000 100000 100000 100000 100000 100000 100000 100000 100000
          100000 100000 100000 100000 100000 100000 100000 100000 100000 100000 100000 100000
          100000 100000 100000 100000 100000 100000 100000 100000 100000 100000 100000 100000
          100000 100000 100000 100000 100000 100000 100000 100000 100000 100000 100000 100000
          100000 100000 100000 100000 100000 100000 100000 100000 100000 100000 100000 100000
          100000 100000 100000 100000 100000 100000 100000 100000 100000 100000 100000 100000
          100000 100000 100000 100000 100000 100000 100000 100000 100000 100000 100000 100000
          100000 100000 100000 100000 100000 100000 100000 100000 100000 100000 100000 100000
          100000 100000 100000 100000 100000 100000 100000 100000 100000 100000 100000 100000
          100000 100000 100000 100000 100000 100000 100000 100000 100000 100000 100000 100000
          100000 100000 100000 100000 100000 100000 100000 100000 100000 100000 100000 100000
          100000 100000 100000 100000 100000 100000 100000 100000 100000 100000 100000 100000
          100000 100000 100000 100000 100000 100000 100000 100000 100000 100000 100000 100000
          100000 100000 100000 100000 100000 100000 100000 100000 100000 100000 100000 100000
          100000 100000 100000 100000 100000 100000 100000 100000 100000 100000 100000 100000
          100000 100000 100000 100000 100000 100000 100000 100000 100000 100000 100000 100000
          100000 100000 100000 100000 100000 100000 100000 100000 100000 100000 100000 100000
          100000 100000 100000 100000 100000 100000 100000 100000 100000 100000 100000 100000
          100000 100000 100000 100000 100000 100000 100000 100000 100000 100000 100000 100000
          100000 100000 100000 100000 100000 100000 100000 100000 100000 100000 100000 100000
          100000 100000 100000 100000 100000 100000 100000 100000 100000 100000 100000 100000
          100000 100000 100000 100000 100000 100000 100000 100000 100000 100000 100000 100000
          100000 100000 100000 100000 100000 100000 100000 100000 100000 100000 100000 100000
          100000 100000 100000 100000 100000 100000 100000 100000 100000 100000 100000 100000
          100000 100000 100000 100000 100000 100000 100000 100000 100000 100000 100000 100000
          100000 100000 100000 100000 100000 100000 100000 100000 100000 100000 100000 100000
          100000 100000 100000 100000 100000 100000 100000 100000 100000 100000 100000 100000
          100000 100000 100000 100000 100000 100000 100000 100000 100000 100000 100000 100000
          100000 100000 100000 100000 100000 100000 100000 100000 100000 100000 100000 100000
          100000 100000 100000 100000 100000 100000 100000 100000 100000 100000 100000 100000
          100000 100000 100000 100000 100000 100000 100000 100000 100000 100000 100000 100000
          100000 100000 100000 100000 100000 100000 100000 100000 100000 100000 100000 100000
          100000 100000 100000 100000 100000 100000 100000 100000 100000 100000 100000 100000
          100000 100000 100000 100000 100000 100000 100000 100000 100000 100000 100000 100000
          100000 100000 100000 100000 100000 100000 100000 100000 100000 100000 100000 100000
          100000 100000 100000 100000 100000 100000 100000 100000 100000 100000 100000 100000
          100000 100000 100000 100000 100000 100000 100000 100000 100000 100000 100000 100000
          100000 100000 100000 100000 100000 100000 100000 100000 100000 100000 100000 100000
          100000 100000 100000 100000 100000 100000 100000 100000 100000 100000 100000 100000
          100000 100000 100000 100000 100000 100000 100000 100000 100000 100000 100000 100000
          100000 100000 100000 100000 100000 100000 100000 100000 100000 100000 100000 100000
          100000 100000 100000 100000 100000 100000 100000 100000 100000 100000 100000 100000
          100000 100000 100000 100000 100000 100000 100000 100000 100000 100000 100000 100000
          100000 100000 100000 100000 100000 100000 100000 100000 100000 100000 100000 100000
          100000 100000 100000 100000 100000 100000 100000 100000 100000 100000 100000 100000
          100000 100000 100000 100000 100000 100000 100000 100000 100000 100000 100000 100000
          100000 100000 100000 100000 100000 100000 100000 100000 100000 100000 100000 100000
          100000 100000 100000 100000 100000 100000 100000 100000 100000 100000 100000 100000
          100000 100000 100000 100000 100000 100000 100000 100000 100000 100000 100000 100000
          100000 100000 100000 100000 100000 100000 100000 100000 100000 100000 100000 100000
          100000 100000 100000 100000 100000 100000 100000 100000 100000 100000 100000 100000
          100000 100000 100000 100000 100000 100000 100000 100000 100000 100000 100000 100000
          100000 100000 100000 100000 100000 100000 100000 100000 100000 100000 100000 100000
          100000 100000 100000 100000 100000 100000 100000 100000 100000 100000 100000 100000
          100000 100000 100000 100000 100000 100000 100000 100000 100000 100000 100000 100000
          100000 100000 100000 100000 100000 100000 100000 100000 100000 100000 100000 100000
          100000 100000 100000 100000 100000 100000 100000 100000 100000 100000 100000 100000
          100000 100000 100000 100000 100000 100000 100000 100000 100000 100000 100000 100000
          100000 100000 100000 100000 100000 100000 100000 100000 100000 100000 100000 100000
          100000 100000 100000 100000 100000 100000 100000 100000 100000 100000 100000 100000
          100000 100000 100000 100000 100000 100000 100000 100000 100000 100000 100000 100000
          100000 100000 100000 100000 100000 100000 100000 100000 100000
        </DataArray>
        <DataArray type="Float32" Name="delta pressure_N2" NumberOfComponents="1" format="ascii">
          0.000141163 0.000136934 0.000141171 0.000136943 0.000132722 0.000132718 0.000128529 0.000128507 0.00012432 0.000124282 0.000120118 0.00012007
          0.000115892 0.000115838 0.000111671 0.000111616 0.000107428 0.000107375 0.000103188 0.00010314 9.89298e-05 9.88901e-05 9.46743e-05 9.46444e-05
          9.04063e-05 9.03882e-05 8.614e-05 8.61346e-05 8.1866e-05 8.18748e-05 7.7593e-05 7.76165e-05 7.33164e-05 7.33559e-05 6.90398e-05 6.90957e-05
          6.47628e-05 6.48366e-05 6.04848e-05 6.0577e-05 5.62087e-05 5.63214e-05 5.19304e-05 5.20646e-05 4.76555e-05 4.7814e-05 4.33775e-05 4.35617e-05
          3.91037e-05 3.93173e-05 3.48261e-05 3.50712e-05 3.05529e-05 3.0834e-05 2.62756e-05 2.65953e-05 2.20026e-05 2.23656e-05 1.77254e-05 1.81349e-05
          1.34541e-05 1.39107e-05 9.16708e-06 9.68706e-06 4.93378e-06 5.45377e-06 0.00014111 0.000136898 0.000132671 0.000128467 0.000124239 0.000120028
          0.000115791 0.000111564 0.000107316 0.000103074 9.88135e-05 9.4558e-05 9.02879e-05 8.6021e-05 8.17431e-05 7.7467e-05 7.31828e-05 6.88993e-05
          6.46096e-05 6.03193e-05 5.6024e-05 5.17269e-05 4.74251e-05 4.31202e-05 3.88105e-05 3.44964e-05 3.01771e-05 2.58521e-05 2.15223e-05 1.71855e-05
          1.28476e-05 8.50185e-06 4.16956e-06 0.000141125 0.000136932 0.000132699 0.000128495 0.000124262 0.00012005 0.000115814 0.000111593 0.000107354
          0.000103123 9.88805e-05 9.46429e-05 9.03975e-05 8.61553e-05 8.19097e-05 7.76657e-05 7.34223e-05 6.91797e-05 6.49413e-05 6.0703e-05 5.64724e-05
          5.22417e-05 4.80217e-05 4.3802e-05 3.95957e-05 3.53902e-05 3.12005e-05 2.70126e-05 2.28413e-05 1.86732e-05 1.45197e-05 1.03697e-05 6.22617e-06
          0.00014103 0.00013685 0.000132613 0.000128414 0.000124175 0.000119959 0.000115713 0.000111483 0.000107228 0.000102983 9.87187e-05 9.44604e-05
          9.01863e-05 8.5916e-05 8.16325e-05 7.73512e-05 7.30584e-05 6.87664e-05 6.44636e-05 6.01603e-05 5.58461e-05 5.15299e-05 4.7202e-05 4.28706e-05
          3.85258e-05 3.41759e-05 2.98107e-05 2.54386e-05 2.10502e-05 1.66533e-05 1.22411e-05 7.8202e-06 3.38895e-06 0.000141099 0.000136926 0.000132689
          0.000128492 0.000124255 0.000120044 0.000115807 0.000111586 0.000107349 0.000103122 9.88844e-05 9.46524e-05 9.04161e-05 8.61825e-05 8.19491e-05
          7.77167e-05 7.34887e-05 6.92609e-05 6.50415e-05 6.08221e-05 5.66149e-05 5.24081e-05 4.82174e-05 4.40279e-05 3.98585e-05 3.56917e-05 3.15486e-05
          2.741e-05 2.32979e-05 1.91924e-05 1.51136e-05 1.10424e-05 6.99457e-06 0.000140992 0.000136819 0.000132578 0.000128376 0.000124131 0.00011991
          0.000115658 0.000111421 0.000107162 0.000102912 9.86433e-05 9.43801e-05 9.01016e-05 8.5826e-05 8.15367e-05 7.72487e-05 7.29473e-05 6.8646e-05
          6.43306e-05 6.00142e-05 5.56821e-05 5.13477e-05 4.69949e-05 4.26383e-05 3.826e-05 3.38759e-05 2.94662e-05 2.50483e-05 2.06014e-05 1.61437e-05
          1.16552e-05 7.1542e-06 2.62365e-06 0.000141125 0.000136943 0.000132707 0.000128503 0.000124266 0.000120049 0.000115814 0.00011159 0.000107357
          0.000103129 9.88974e-05 9.46681e-05 9.044e-05 8.62121e-05 8.19894e-05 7.7766e-05 7.35515e-05 6.9336e-05 6.51335e-05 6.09303e-05 5.67442e-05
          5.25584e-05 4.83944e-05 4.42322e-05 4.00971e-05 3.59659e-05 3.18673e-05 2.77754e-05 2.37215e-05 1.96776e-05 1.56751e-05 1.16852e-05 7.73692e-06
          0.000141012 0.000136817 0.000132575 0.000128358 0.000124111 0.000119877 0.000115623 0.000111377 0.000107115 0.000102857 9.85857e-05 9.43159e-05
          9.00338e-05 8.57518e-05 8.14572e-05 7.7162e-05 7.28527e-05 6.85422e-05 6.42154e-05 5.98867e-05 5.55384e-05 5.11873e-05 4.6812e-05 4.24326e-05
          3.80235e-05 3.36081e-05 2.91566e-05 2.46958e-05 2.01922e-05 1.56756e-05 1.11108e-05 6.52914e-06 1.89761e-06 0.0001412 0.000136985 0.000132751
          0.000128527 0.000124293 0.000120064 0.000115832 0.000111601 0.000107372 0.000103141 9.89151e-05 9.4686e-05 9.04653e-05 8.62408e-05 8.20274e-05
          7.78103e-05 7.36074e-05 6.94014e-05 6.52133e-05 6.10232e-05 5.68554e-05 5.2687e-05 4.85464e-05 4.44074e-05 4.03028e-05 3.62027e-05 3.21447e-05
          2.8095e-05 2.40962e-05 2.01104e-05 1.61835e-05 1.22747e-05 8.42899e-06 0.000141074 0.000136839 0.0001326 0.000128356 0.00012411 0.000119859
          0.000115605 0.000111347 0.000107084 0.000102817 9.85443e-05 9.42671e-05 8.99824e-05 8.56938e-05 8.13949e-05 7.70926e-05 7.27768e-05 6.84581e-05
          6.41217e-05 5.97825e-05 5.54204e-05 5.10551e-05 4.66606e-05 4.22619e-05 3.7826e-05 3.33839e-05 2.88951e-05 2.43966e-05 1.98407e-05 1.527e-05
          1.0631e-05 5.97075e-06 1.23604e-06 0.000141298 0.00013704 0.000132809 0.000128557 0.000124328 0.000120082 0.000115855 0.000111614 0.00010739
          0.000103154 9.89333e-05 9.47028e-05 9.04883e-05 8.62653e-05 8.20594e-05 7.78465e-05 7.36528e-05 6.94538e-05 6.52771e-05 6.10969e-05 5.69436e-05
          5.27888e-05 4.86671e-05 4.45465e-05 4.04669e-05 3.6392e-05 3.23684e-05 2.8354e-05 2.44039e-05 2.04695e-05 1.6614e-05 1.27824e-05 9.04173e-06
          0.000141151 0.000136873 0.000132636 0.000128365 0.00012412 0.000119852 0.000115599 0.000111328 0.000107066 0.00010279 9.85169e-05 9.4233e-05
          8.99466e-05 8.56522e-05 8.13502e-05 7.70422e-05 7.27216e-05 6.83963e-05 6.40526e-05 5.97052e-05 5.53326e-05 5.09566e-05 4.65472e-05 4.21339e-05
          3.76767e-05 3.32142e-05 2.86947e-05 2.41667e-05 1.95655e-05 1.49498e-05 1.02419e-05 5.50953e-06 6.69083e-07 0.000141387 0.00013709 0.000132861
          0.000128586 0.00012436 0.000120099 0.000115876 0.000111626 0.000107405 0.000103164 9.89481e-05 9.47156e-05 9.05058e-05 8.62832e-05 8.20827e-05
          7.78722e-05 7.36849e-05 6.94903e-05 6.53216e-05 6.11481e-05 5.70049e-05 5.28594e-05 4.87509e-05 4.46432e-05 4.05815e-05 3.65245e-05 3.25261e-05
          2.85378e-05 2.46256e-05 2.07311e-05 1.69369e-05 1.31722e-05 9.53661e-06 0.000141213 0.000136902 0.000132666 0.000128374 0.000124132 0.000119849
          0.000115598 0.000111318 0.000107057 0.000102775 9.85015e-05 9.42128e-05 8.99256e-05 8.56271e-05 8.13235e-05 7.70116e-05 7.2688e-05 6.83585e-05
          6.40103e-05 5.96577e-05 5.52785e-05 5.08958e-05 4.64768e-05 4.20545e-05 3.75833e-05 3.31083e-05 2.85676e-05 2.40212e-05 1.93861e-05 1.47407e-05
          9.97458e-06 5.18619e-06 2.36803e-07 0.000141441 0.000137119 0.000132893 0.000128602 0.000124379 0.000120109 0.000115888 0.000111632 0.000107414
          0.00010317 9.89564e-05 9.47226e-05 9.05152e-05 8.62926e-05 8.20949e-05 7.78855e-05 7.37016e-05 6.95091e-05 6.53445e-05 6.11743e-05 5.70363e-05
          5.28956e-05 4.87939e-05 4.46928e-05 4.06404e-05 3.65928e-05 3.2608e-05 2.86335e-05 2.47429e-05 2.08709e-05 1.7117e-05 1.33961e-05 9.8583e-06
          0.000141236 0.000136913 0.000132678 0.000128378 0.000124137 0.000119849 0.000115599 0.000111315 0.000107054 0.00010277 9.84965e-05 9.42061e-05
          8.99187e-05 8.56188e-05 8.13145e-05 7.70013e-05 7.26767e-05 6.83457e-05 6.3996e-05 5.96417e-05 5.52602e-05 5.08753e-05 4.64528e-05 4.20276e-05
          3.75513e-05 3.30724e-05 2.85233e-05 2.39718e-05 1.9321e-05 1.46685e-05 9.86559e-06 5.06415e-06 0 0.000141441 0.000137119 0.000132893
          0.000128602 0.000124379 0.000120109 0.000115888 0.000111632 0.000107414 0.00010317 9.89564e-05 9.47226e-05 9.05152e-05 8.62926e-05 8.20949e-05
          7.78855e-05 7.37016e-05 6.95091e-05 6.53445e-05 6.11743e-05 5.70363e-05 5.28956e-05 4.87939e-05 4.46928e-05 4.06404e-05 3.65928e-05 3.2608e-05
          2.86335e-05 2.47429e-05 2.08709e-05 1.7117e-05 1.33961e-05 9.8583e-06 0.000141213 0.000136902 0.000132666 0.000128374 0.000124132 0.000119849
          0.000115598 0.000111318 0.000107057 0.000102775 9.85015e-05 9.42128e-05 8.99256e-05 8.56271e-05 8.13234e-05 7.70116e-05 7.2688e-05 6.83585e-05
          6.40102e-05 5.96577e-05 5.52785e-05 5.08958e-05 4.64767e-05 4.20545e-05 3.75832e-05 3.31082e-05 2.85675e-05 2.40212e-05 1.93861e-05 1.47407e-05
          9.97455e-06 5.18614e-06 2.36789e-07 0.000141387 0.00013709 0.000132861 0.000128586 0.00012436 0.000120099 0.000115876 0.000111626 0.000107405
          0.000103164 9.89481e-05 9.47156e-05 9.05058e-05 8.62832e-05 8.20827e-05 7.78722e-05 7.36849e-05 6.94903e-05 6.53216e-05 6.11481e-05 5.70048e-05
          5.28594e-05 4.87509e-05 4.46432e-05 4.05815e-05 3.65245e-05 3.25261e-05 2.85378e-05 2.46256e-05 2.07311e-05 1.69369e-05 1.31722e-05 9.53661e-06
          0.000141151 0.000136873 0.000132636 0.000128365 0.00012412 0.000119851 0.000115599 0.000111328 0.000107066 0.00010279 9.85169e-05 9.42329e-05
          8.99466e-05 8.56521e-05 8.13502e-05 7.70422e-05 7.27216e-05 6.83963e-05 6.40526e-05 5.97052e-05 5.53326e-05 5.09566e-05 4.65472e-05 4.21338e-05
          3.76767e-05 3.32142e-05 2.86947e-05 2.41667e-05 1.95655e-05 1.49497e-05 1.02419e-05 5.50946e-06 6.68981e-07 0.000141298 0.00013704 0.000132809
          0.000128557 0.000124328 0.000120082 0.000115855 0.000111614 0.00010739 0.000103154 9.89333e-05 9.47028e-05 9.04883e-05 8.62654e-05 8.20594e-05
          7.78465e-05 7.36528e-05 6.94537e-05 6.52771e-05 6.10969e-05 5.69436e-05 5.27888e-05 4.86671e-05 4.45465e-05 4.04669e-05 3.6392e-05 3.23683e-05
          2.8354e-05 2.44039e-05 2.04695e-05 1.6614e-05 1.27824e-05 9.04175e-06 0.000141074 0.000136839 0.0001326 0.000128356 0.00012411 0.000119859
          0.000115605 0.000111347 0.000107084 0.000102817 9.85443e-05 9.42671e-05 8.99823e-05 8.56938e-05 8.13949e-05 7.70926e-05 7.27768e-05 6.84581e-05
          6.41217e-05 5.97825e-05 5.54204e-05 5.10551e-05 4.66606e-05 4.22619e-05 3.7826e-05 3.33838e-05 2.8895e-05 2.43966e-05 1.98406e-05 1.52699e-05
          1.06309e-05 5.97064e-06 1.23592e-06 0.0001412 0.000136985 0.000132751 0.000128527 0.000124293 0.000120064 0.000115832 0.000111601 0.000107372
          0.000103141 9.89151e-05 9.4686e-05 9.04653e-05 8.62408e-05 8.20274e-05 7.78103e-05 7.36074e-05 6.94014e-05 6.52133e-05 6.10232e-05 5.68553e-05
          5.2687e-05 4.85464e-05 4.44074e-05 4.03028e-05 3.62027e-05 3.21447e-05 2.8095e-05 2.40961e-05 2.01103e-05 1.61835e-05 1.22746e-05 8.42895e-06
          0.000141012 0.000136817 0.000132575 0.000128358 0.00012411 0.000119877 0.000115623 0.000111377 0.000107115 0.000102857 9.85857e-05 9.43159e-05
          9.00338e-05 8.57518e-05 8.14572e-05 7.71619e-05 7.28527e-05 6.85422e-05 6.42154e-05 5.98867e-05 5.55384e-05 5.11873e-05 4.6812e-05 4.24326e-05
          3.80234e-05 3.3608e-05 2.91565e-05 2.46957e-05 2.01922e-05 1.56755e-05 1.11106e-05 6.52899e-06 1.8974e-06 0.000141125 0.000136943 0.000132707
          0.000128503 0.000124266 0.000120049 0.000115814 0.00011159 0.000107357 0.000103129 9.88974e-05 9.46681e-05 9.044e-05 8.62121e-05 8.19894e-05
          7.7766e-05 7.35515e-05 6.9336e-05 6.51335e-05 6.09302e-05 5.67442e-05 5.25584e-05 4.83944e-05 4.42322e-05 4.00971e-05 3.59658e-05 3.18673e-05
          2.77754e-05 2.37215e-05 1.96775e-05 1.56751e-05 1.16852e-05 7.7368e-06 0.000140992 0.000136819 0.000132578 0.000128376 0.000124131 0.00011991
          0.000115658 0.000111421 0.000107162 0.000102912 9.86432e-05 9.438e-05 9.01016e-05 8.5826e-05 8.15367e-05 7.72487e-05 7.29473e-05 6.8646e-05
          6.43306e-05 6.00142e-05 5.56821e-05 5.13477e-05 4.69949e-05 4.26383e-05 3.826e-05 3.38758e-05 2.94661e-05 2.50482e-05 2.06013e-05 1.61435e-05
          1.1655e-05 7.15406e-06 2.62342e-06 0.000141099 0.000136926 0.000132689 0.000128492 0.000124255 0.000120044 0.000115807 0.000111586 0.000107349
          0.000103122 9.88844e-05 9.46524e-05 9.04161e-05 8.61825e-05 8.1949e-05 7.77167e-05 7.34887e-05 6.92609e-05 6.50415e-05 6.08221e-05 5.66149e-05
          5.24081e-05 4.82174e-05 4.40279e-05 3.98584e-05 3.56916e-05 3.15485e-05 2.741e-05 2.32979e-05 1.91923e-05 1.51135e-05 1.10424e-05 6.99449e-06
          0.00014103 0.00013685 0.000132613 0.000128414 0.000124175 0.000119959 0.000115713 0.000111483 0.000107228 0.000102983 9.87187e-05 9.44604e-05
          9.01863e-05 8.5916e-05 8.16325e-05 7.73512e-05 7.30584e-05 6.87663e-05 6.44636e-05 6.01603e-05 5.5846e-05 5.15299e-05 4.7202e-05 4.28706e-05
          3.85257e-05 3.41758e-05 2.98107e-05 2.54385e-05 2.10501e-05 1.66532e-05 1.2241e-05 7.82007e-06 3.38884e-06 0.000141125 0.000136932 0.000132699
          0.000128495 0.000124262 0.00012005 0.000115814 0.000111593 0.000107354 0.000103123 9.88805e-05 9.46429e-05 9.03975e-05 8.61553e-05 8.19097e-05
          7.76657e-05 7.34223e-05 6.91796e-05 6.49413e-05 6.0703e-05 5.64724e-05 5.22417e-05 4.80217e-05 4.38019e-05 3.95956e-05 3.53902e-05 3.12004e-05
          2.70126e-05 2.28413e-05 1.86731e-05 1.45197e-05 1.03697e-05 6.22617e-06 0.00014111 0.000136898 0.000132671 0.000128467 0.000124239 0.000120028
          0.000115791 0.000111564 0.000107315 0.000103074 9.88135e-05 9.4558e-05 9.02879e-05 8.60209e-05 8.1743e-05 7.7467e-05 7.31828e-05 6.88992e-05
          6.46096e-05 6.03193e-05 5.6024e-05 5.17269e-05 4.74251e-05 4.31202e-05 3.88105e-05 3.44963e-05 3.0177e-05 2.5852e-05 2.15222e-05 1.71855e-05
          1.28475e-05 8.50175e-06 4.16946e-06 0.000141171 0.000136943 0.000132718 0.000128507 0.000124282 0.00012007 0.000115838 0.000111616 0.000107375
          0.00010314 9.88901e-05 9.46444e-05 9.03882e-05 8.61346e-05 8.18748e-05 7.76164e-05 7.33559e-05 6.90956e-05 6.48366e-05 6.0577e-05 5.63214e-05
          5.20646e-05 4.78139e-05 4.35617e-05 3.93173e-05 3.50712e-05 3.08339e-05 2.65953e-05 2.23655e-05 1.81348e-05 1.39107e-05 9.68704e-06 5.45374e-06
          0.000141163 0.000136934 0.000132722 0.000128529 0.00012432 0.000120118 0.000115892 0.000111671 0.000107428 0.000103188 9.89298e-05 9.46743e-05
          9.04063e-05 8.614e-05 8.1866e-05 7.7593e-05 7.33164e-05 6.90398e-05 6.47628e-05 6.04848e-05 5.62086e-05 5.19304e-05 4.76555e-05 4.33775e-05
          3.91037e-05 3.4826e-05 3.05529e-05 2.62755e-05 2.20026e-05 1.77253e-05 1.34541e-05 9.16699e-06 4.93368e-06
        </DataArray>
        <DataArray type="Float32" Name="density_N2" NumberOfComponents="1" format="ascii">
          1.18991 1.18991 1.18991 1.18991 1.18991 1.18991 1.18991 1.18991 1.18991 1.18991 1.18991 1.18991
          1.18991 1.18991 1.18991 1.18991 1.18991 1.18991 1.18991 1.18991 1.18991 1.18991 1.18991 1.18991
          1.18991 1.18991 1.18991 1.18991 1.18991 1.18991 1.18991 1.18991 1.18991 1.18991 1.18991 1.18991
          1.18991 1.18991 1.18991 1.18991 1.18991 1.18991 1.18991 1.18991 1.18991 1.18991 1.18991 1.18991
          1.18991 1.18991 1.18991 1.18991 1.18991 1.18991 1.18991 1.18991 1.18991 1.18991 1.18991 1.18991
          1.18991 1.18991 1.18991 1.18991 1.18991 1.18991 1.18991 1.18991 1.18991 1.18991 1.18991 1.18991
          1.18991 1.18991 1.18991 1.18991 1.18991 1.18991 1.18991 1.18991 1.18991 1.18991 1.18991 1.18991
          1.18991 1.18991 1.18991 1.18991 1.18991 1.18991 1.18991 1.18991 1.18991 1.18991 1.18991 1.18991
          1.18991 1.18991 1.18991 1.18991 1.18991 1.18991 1.18991 1.18991 1.18991 1.18991 1.18991 1.18991
          1.18991 1.18991 1.18991 1.18991 1.18991 1.18991 1.18991 1.18991 1.18991 1.18991 1.18991 1.18991
          1.18991 1.18991 1.18991 1.18991 1.18991 1.18991 1.18991 1.18991 1.18991 1.18991 1.18991 1.18991
          1.18991 1.18991 1.18991 1.18991 1.18991 1.18991 1.18991 1.18991 1.18991 1.18991 1.18991 1.18991
          1.18991 1.18991 1.18991 1.18991 1.18991 1.18991 1.18991 1.18991 1.18991 1.18991 1.18991 1.18991
          1.18991 1.18991 1.18991 1.18991 1.18991 1.18991 1.18991 1.18991 1.18991 1.18991 1.18991 1.18991
          1.18991 1.18991 1.18991 1.18991 1.18991 1.18991 1.18991 1.18991 1.18991 1.18991 1.18991 1.18991
          1.18991 1.18991 1.18991 1.18991 1.18991 1.18991 1.18991 1.18991 1.18991 1.18991 1.18991 1.18991
          1.18991 1.18991 1.18991 1.18991 1.18991 1.18991 1.18991 1.18991 1.18991 1.18991 1.18991 1.18991
          1.18991 1.18991 1.18991 1.18991 1.18991 1.18991 1.18991 1.18991 1.18991 1.18991 1.18991 1.18991
          1.18991 1.18991 1.18991 1.18991 1.18991 1.18991 1.18991 1.18991 1.18991 1.18991 1.18991 1.18991
          1.18991 1.18991 1.18991 1.18991 1.18991 1.18991 1.18991 1.18991 1.18991 1.18991 1.18991 1.18991
          1.18991 1.18991 1.18991 1.18991 1.18991 1.18991 1.18991 1.18991 1.18991 1.18991 1.18991 1.18991
          1.18991 1.18991 1.18991 1.18991 1.18991 1.18991 1.18991 1.18991 1.18991 1.18991 1.18991 1.18991
          1.18991 1.18991 1.18991 1.18991 1.18991 1.18991 1.18991 1.18991 1.18991 1.18991 1.18991 1.18991
          1.18991 1.18991 1.18991 1.18991 1.18991 1.18991 1.18991 1.18991 1.18991 1.18991 1.18991 1.18991
          1.18991 1.18991 1.18991 1.18991 1.18991 1.18991 1.18991 1.18991 1.18991 1.18991 1.18991 1.18991
          1.18991 1.18991 1.18991 1.18991 1.18991 1.18991 1.18991 1.18991 1.18991 1.18991 1.18991 1.18991
          1.18991 1.18991 1.18991 1.18991 1.18991 1.18991 1.18991 1.18991 1.18991 1.18991 1.18991 1.18991
          1.18991 1.18991 1.18991 1.18991 1.18991 1.18991 1.18991 1.18991 1.18991 1.18991 1.18991 1.18991
          1.18991 1.18991 1.18991 1.18991 1.18991 1.18991 1.18991 1.18991 1.18991 1.18991 1.18991 1.18991
          1.18991 1.18991 1.18991 1.18991 1.18991 1.18991 1.18991 1.18991 1.18991 1.18991 1.18991 1.18991
          1.18991 1.18991 1.18991 1.18991 1.18991 1.18991 1.18991 1.18991 1.18991 1.18991 1.18991 1.18991
          1.18991 1.18991 1.18991 1.18991 1.18991 1.18991 1.18991 1.18991 1.18991 1.18991 1.18991 1.18991
          1.18991 1.18991 1.18991 1.18991 1.18991 1.18991 1.18991 1.18991 1.18991 1.18991 1.18991 1.18991
          1.18991 1.18991 1.18991 1.18991 1.18991 1.18991 1.18991 1.18991 1.18991 1.18991 1.18991 1.18991
          1.18991 1.18991 1.18991 1.18991 1.18991 1.18991 1.18991 1.18991 1.18991 1.18991 1.18991 1.18991
          1.18991 1.18991 1.18991 1.18991 1.18991 1.18991 1.18991 1.18991 1.18991 1.18991 1.18991 1.18991
          1.18991 1.18991 1.18991 1.18991 1.18991 1.18991 1.18991 1.18991 1.18991 1.18991 1.18991 1.18991
          1.18991 1.18991 1.18991 1.18991 1.18991 1.18991 1.18991 1.18991 1.18991 1.18991 1.18991 1.18991
          1.18991 1.18991 1.18991 1.18991 1.18991 1.18991 1.18991 1.18991 1.18991 1.18991 1.18991 1.18991
          1.18991 1.18991 1.18991 1.18991 1.18991 1.18991 1.18991 1.18991 1.18991 1.18991 1.18991 1.18991
          1.18991 1.18991 1.18991 1.18991 1.18991 1.18991 1.18991 1.18991 1.18991 1.18991 1.18991 1.18991
          1.18991 1.18991 1.18991 1.18991 1.18991 1.18991 1.18991 1.18991 1.18991 1.18991 1.18991 1.18991
          1.18991 1.18991 1.18991 1.18991 1.18991 1.18991 1.18991 1.18991 1.18991 1.18991 1.18991 1.18991
          1.18991 1.18991 1.18991 1.18991 1.18991 1.18991 1.18991 1.18991 1.18991 1.18991 1.18991 1.18991
          1.18991 1.18991 1.18991 1.18991 1.18991 1.18991 1.18991 1.18991 1.18991 1.18991 1.18991 1.18991
          1.18991 1.18991 1.18991 1.18991 1.18991 1.18991 1.18991 1.18991 1.18991 1.18991 1.18991 1.18991
          1.18991 1.18991 1.18991 1.18991 1.18991 1.18991 1.18991 1.18991 1.18991 1.18991 1.18991 1.18991
          1.18991 1.18991 1.18991 1.18991 1.18991 1.18991 1.18991 1.18991 1.18991 1.18991 1.18991 1.18991
          1.18991 1.18991 1.18991 1.18991 1.18991 1.18991 1.18991 1.18991 1.18991 1.18991 1.18991 1.18991
          1.18991 1.18991 1.18991 1.18991 1.18991 1.18991 1.18991 1.18991 1.18991 1.18991 1.18991 1.18991
          1.18991 1.18991 1.18991 1.18991 1.18991 1.18991 1.18991 1.18991 1.18991 1.18991 1.18991 1.18991
          1.18991 1.18991 1.18991 1.18991 1.18991 1.18991 1.18991 1.18991 1.18991 1.18991 1.18991 1.18991
          1.18991 1.18991 1.18991 1.18991 1.18991 1.18991 1.18991 1.18991 1.18991 1.18991 1.18991 1.18991
          1.18991 1.18991 1.18991 1.18991 1.18991 1.18991 1.18991 1.18991 1.18991 1.18991 1.18991 1.18991
          1.18991 1.18991 1.18991 1.18991 1.18991 1.18991 1.18991 1.18991 1.18991 1.18991 1.18991 1.18991
          1.18991 1.18991 1.18991 1.18991 1.18991 1.18991 1.18991 1.18991 1.18991 1.18991 1.18991 1.18991
          1.18991 1.18991 1.18991 1.18991 1.18991 1.18991 1.18991 1.18991 1.18991 1.18991 1.18991 1.18991
          1.18991 1.18991 1.18991 1.18991 1.18991 1.18991 1.18991 1.18991 1.18991 1.18991 1.18991 1.18991
          1.18991 1.18991 1.18991 1.18991 1.18991 1.18991 1.18991 1.18991 1.18991 1.18991 1.18991 1.18991
          1.18991 1.18991 1.18991 1.18991 1.18991 1.18991 1.18991 1.18991 1.18991 1.18991 1.18991 1.18991
          1.18991 1.18991 1.18991 1.18991 1.18991 1.18991 1.18991 1.18991 1.18991 1.18991 1.18991 1.18991
          1.18991 1.18991 1.18991 1.18991 1.18991 1.18991 1.18991 1.18991 1.18991 1.18991 1.18991 1.18991
          1.18991 1.18991 1.18991 1.18991 1.18991 1.18991 1.18991 1.18991 1.18991 1.18991 1.18991 1.18991
          1.18991 1.18991 1.18991 1.18991 1.18991 1.18991 1.18991 1.18991 1.18991 1.18991 1.18991 1.18991
          1.18991 1.18991 1.18991 1.18991 1.18991 1.18991 1.18991 1.18991 1.18991 1.18991 1.18991 1.18991
          1.18991 1.18991 1.18991 1.18991 1.18991 1.18991 1.18991 1.18991 1.18991 1.18991 1.18991 1.18991