<?xml version="1.0"?>
<VTKFile type="UnstructuredGrid" version="0.1" byte_order="LittleEndian">
  <UnstructuredGrid>
    <Piece NumberOfCells="324" NumberOfPoints="361">
      <PointData Scalars="pressure_gas" Vectors="velocity_gas">
        <DataArray type="Float32" Name="pressure_gas" NumberOfComponents="1" format="ascii">
          100024 100024 100023 100023 100024 100023 100024 100023 100024 100023 100024 100023
          100024 100023 100024 100023 100024 100023 100024 100023 100024 100023 100024 100023
          100024 100023 100024 100023 100024 100023 100024 100023 100024 100023 100024 100023
          100024 100023 100022 100022 100022 100022 100022 100022 100022 100022 100022 100022
          100022 100022 100022 100022 100022 100022 100022 100022 100022 100022 100022 100022
          100022 100022 100022 100022 100022 100022 100022 100022 100022 100022 100022 100022
          100022 100022 100022 100022 100021 100021 100021 100021 100021 100021 100021 100021
          100021 100021 100021 100021 100021 100021 100021 100021 100021 100021 100021 100020
          100020 100020 100020 100020 100020 100020 100020 100020 100020 100020 100020 100020
          100020 100020 100020 100020 100020 100020 100020 100020 100020 100020 100020 100020
          100020 100020 100020 100020 100020 100020 100020 100020 100020 100020 100020 100020
          100020 100019 100019 100019 100019 100019 100019 100019 100019 100019 100019 100019
          100019 100019 100019 100019 100019 100019 100019 100019 100018 100018 100018 100018
          100018 100018 100018 100018 100018 100018 100018 100018 100018 100018 100018 100018
          100018 100018 100018 100018 100018 100018 100018 100018 100018 100018 100018 100018
          100018 100018 100018 100018 100018 100018 100018 100018 100018 100018 100017 100017
          100017 100017 100017 100017 100017 100017 100017 100017 100017 100017 100017 100017
          100017 100017 100017 100017 100017 100016 100016 100016 100016 100016 100016 100016
          100016 100016 100016 100016 100016 100016 100016 100016 100016 100016 100016 100016
          100016 100016 100016 100016 100016 100016 100016 100016 100016 100016 100016 100016
          100016 100016 100016 100016 100016 100016 100016 100015 100015 100015 100015 100015
          100015 100015 100015 100015 100015 100015 100015 100015 100015 100015 100015 100015
          100015 100015 100014 100014 100014 100014 100014 100014 100014 100014 100014 100014
          100014 100014 100014 100014 100014 100014 100014 100014 100014 100014 100014 100014
          100014 100014 100014 100014 100014 100014 100014 100014 100014 100014 100014 100014
          100014 100014 100014 100014 100013 100013 100013 100013 100013 100013 100013 100013
          100013 100013 100013 100013 100013 100013 100013 100013 100013 100013 100013 100012
          100012 100012 100012 100012 100012 100012 100012 100012 100012 100012 100012 100012
          100012 100012 100012 100012 100012 100012 100012 100012 100012 100012 100012 100012
          100012 100012 100012 100012 100012 100012 100012 100012 100012 100012 100012 100012
          100012
        </DataArray>
        <DataArray type="Float32" Name="delta pressure_gas" NumberOfComponents="1" format="ascii">
          23.7322 23.7322 23.0616 23.0616 23.7322 23.0617 23.7322 23.0617 23.7322 23.0617 23.7322 23.0617
          23.7322 23.0617 23.7322 23.0617 23.7322 23.0617 23.7322 23.0617 23.7322 23.0617 23.7322 23.0617
          23.7322 23.0617 23.7322 23.0617 23.7322 23.0617 23.7322 23.0617 23.7322 23.0617 23.7322 23.0616
          23.7322 23.0616 22.3911 22.3911 22.3911 22.3911 22.3911 22.3911 22.3911 22.3911 22.3911 22.3911
          22.3911 22.3911 22.3911 22.3911 22.3911 22.3911 22.3911 22.3911 22.3911 21.7206 21.7206 21.7206
          21.7206 21.7206 21.7206 21.7206 21.7206 21.7206 21.7206 21.7206 21.7206 21.7206 21.7206 21.7206
          21.7206 21.7206 21.7206 21.7206 21.0501 21.0501 21.0501 21.0501 21.0501 21.0501 21.0501 21.0501
          21.0501 21.0501 21.0501 21.0501 21.0501 21.0501 21.0501 21.0501 21.0501 21.0501 21.0501 20.3796
          20.3796 20.3796 20.3796 20.3796 20.3796 20.3796 20.3796 20.3796 20.3796 20.3796 20.3796 20.3796
          20.3796 20.3796 20.3796 20.3796 20.3796 20.3796 19.7091 19.7091 19.7091 19.7091 19.7091 19.709
          19.7091 19.709 19.7091 19.709 19.7091 19.709 19.7091 19.709 19.7091 19.7091 19.7091 19.7091
          19.7091 19.0386 19.0386 19.0386 19.0386 19.0386 19.0385 19.0386 19.0385 19.0386 19.0385 19.0386
          19.0385 19.0386 19.0385 19.0386 19.0386 19.0386 19.0386 19.0386 18.3681 18.3681 18.3681 18.3681
          18.3681 18.368 18.3681 18.368 18.3681 18.368 18.3681 18.368 18.3681 18.368 18.3681 18.3681
          18.3681 18.3681 18.3681 17.6976 17.6976 17.6976 17.6976 17.6976 17.6975 17.6976 17.6975 17.6976
          17.6975 17.6976 17.6975 17.6976 17.6975 17.6976 17.6976 17.6976 17.6976 17.6976 17.0272 17.0272
          17.0272 17.0271 17.0271 17.0271 17.0271 17.027 17.0271 17.027 17.0271 17.027 17.0271 17.0271
          17.0271 17.0271 17.0272 17.0272 17.0272 16.3567 16.3567 16.3567 16.3567 16.3567 16.3566 16.3566
          16.3566 16.3566 16.3566 16.3566 16.3566 16.3566 16.3566 16.3567 16.3567 16.3567 16.3567 16.3567
          15.6863 15.6863 15.6863 15.6862 15.6863 15.6861 15.6862 15.6861 15.6862 15.6861 15.6862 15.6861
          15.6862 15.6861 15.6863 15.6862 15.6863 15.6863 15.6863 15.0159 15.0159 15.0159 15.0158 15.0158
          15.0157 15.0157 15.0157 15.0157 15.0157 15.0157 15.0157 15.0158 15.0157 15.0158 15.0158 15.0159
          15.0159 15.0159 14.3455 14.3455 14.3455 14.3454 14.3454 14.3453 14.3453 14.3453 14.3453 14.3453
          14.3453 14.3453 14.3453 14.3453 14.3454 14.3454 14.3455 14.3455 14.3455 13.6751 13.6751 13.6751
          13.675 13.6751 13.6749 13.675 13.6749 13.675 13.6749 13.675 13.6749 13.675 13.6749 13.6751
          13.675 13.6751 13.6751 13.6751 13.0048 13.0048 13.0048 13.0047 13.0047 13.0046 13.0046 13.0046
          13.0046 13.0046 13.0046 13.0046 13.0046 13.0046 13.0047 13.0047 13.0048 13.0048 13.0048 12.3344
          12.3344 12.3344 12.3344 12.3344 12.3343 12.3343 12.3343 12.3343 12.3343 12.3343 12.3343 12.3343
          12.3343 12.3344 12.3344 12.3344 12.3344 12.3344 11.6641 11.6641 11.6641 11.6641 11.6641 11.6641
          11.6641 11.6641 11.6641 11.6641 11.6641 11.6641 11.6641 11.6641 11.6641 11.6641 11.6641 11.6641
          11.6641
        </DataArray>
        <DataArray type="Float32" Name="mass fraction_gas^H2O" NumberOfComponents="1" format="ascii">
          0.0001 0.0001 0.0001 9.99999e-05 0.0001 0.0001 0.0001 9.99999e-05 0.0001 0.0001 0.0001 9.99999e-05
          0.0001 0.0001 0.0001 9.99999e-05 0.0001 0.0001 0.0001 9.99999e-05 0.0001 0.0001 0.0001 9.99999e-05
          0.0001 0.0001 0.0001 9.99999e-05 0.0001 0.0001 0.0001 9.99999e-05 0.0001 0.0001 0.0001 9.99999e-05
          0.0001 0.0001 0.0001 9.99999e-05 0.0001 9.99999e-05 0.0001 9.99999e-05 0.0001 9.99999e-05 0.0001 9.99999e-05
          0.0001 9.99999e-05 0.0001 9.99999e-05 0.0001 9.99999e-05 0.0001 9.99999e-05 0.0001 0.0001 9.99998e-05 0.000100001
          9.99997e-05 0.0001 9.99998e-05 0.0001 9.99998e-05 0.0001 9.99998e-05 0.0001 9.99998e-05 0.0001 9.99998e-05 0.0001
          9.99997e-05 0.000100001 9.99998e-05 0.0001 0.0001 9.99997e-05 0.000100001 9.99996e-05 0.000100001 9.99996e-05 0.0001 9.99996e-05
          0.0001 9.99996e-05 0.0001 9.99996e-05 0.0001 9.99996e-05 0.000100001 9.99996e-05 0.000100001 9.99997e-05 0.0001 0.0001
          9.99995e-05 0.000100001 9.99993e-05 0.000100001 9.99981e-05 9.99999e-05 9.99989e-05 0.0001 9.9999e-05 0.0001 9.99989e-05 9.99999e-05
          9.99982e-05 0.000100001 9.99993e-05 0.000100001 9.99995e-05 0.0001 0.0001 9.99992e-05 0.000100002 9.99991e-05 0.000100001 9.99919e-05
          9.99962e-05 9.99958e-05 9.99981e-05 9.99965e-05 9.99981e-05 9.99957e-05 9.99962e-05 9.9992e-05 0.000100001 9.9999e-05 0.000100002 9.99992e-05
          0.0001 0.0001 9.99987e-05 0.000100002 9.99986e-05 0.000100001 9.99756e-05 9.99854e-05 9.99872e-05 9.99915e-05 9.99897e-05 9.99914e-05
          9.99871e-05 9.99853e-05 9.99759e-05 0.000100002 9.99986e-05 0.000100002 9.99987e-05 0.0001 0.0001 9.99983e-05 0.000100003 9.9998e-05
          0.000100001 9.99427e-05 9.99623e-05 9.9969e-05 9.99769e-05 9.9975e-05 9.99768e-05 9.99689e-05 9.99622e-05 9.99434e-05 0.000100002 9.9998e-05
          0.000100003 9.99983e-05 0.0001 0.0001 9.99978e-05 0.000100004 9.99973e-05 0.000100001 9.98869e-05 9.99212e-05 9.99366e-05 9.995e-05
          9.99485e-05 9.99499e-05 9.99364e-05 9.9921e-05 9.9888e-05 0.000100003 9.99973e-05 0.000100004 9.99978e-05 0.0001 0.0001 9.99975e-05
          0.000100005 9.99965e-05 0.0001 9.98024e-05 9.98567e-05 9.9885e-05 9.99066e-05 9.9906e-05 9.99065e-05 9.98848e-05 9.98563e-05 9.98041e-05
          0.000100003 9.99965e-05 0.000100005 9.99975e-05 0.0001 0.0001 9.99971e-05 0.000100005 9.99955e-05 9.99994e-05 9.96848e-05 9.97641e-05
          9.98102e-05 9.98426e-05 9.98435e-05 9.98425e-05 9.98098e-05 9.97637e-05 9.96874e-05 0.000100003 9.99956e-05 0.000100005 9.99971e-05 0.0001
          0.0001 9.9997e-05 0.000100006 9.99946e-05 9.99977e-05 9.95311e-05 9.96404e-05 9.97087e-05 9.97547e-05 9.97578e-05 9.97545e-05 9.97082e-05
          9.96399e-05 9.95346e-05 0.000100003 9.99947e-05 0.000100006 9.9997e-05 0.0001 0.0001 9.9997e-05 0.000100006 9.99936e-05 9.99952e-05
          9.93385e-05 9.94837e-05 9.95783e-05 9.96405e-05 9.96464e-05 9.96402e-05 9.95777e-05 9.94831e-05 9.93431e-05 0.000100002 9.99937e-05 0.000100006
          9.9997e-05 0.0001 0.0001 9.99973e-05 0.000100007 9.99928e-05 9.99915e-05 9.91066e-05 9.92944e-05 9.94184e-05 9.94988e-05 9.95082e-05
          9.94985e-05 9.94177e-05 9.92936e-05 9.91123e-05 9.99996e-05 9.99929e-05 0.000100007 9.99973e-05 0.0001 0.0001 9.99976e-05 0.000100007
          9.99921e-05 9.9986e-05 9.88399e-05 9.90751e-05 9.92308e-05 9.93306e-05 9.93441e-05 9.93302e-05 9.923e-05 9.90742e-05 9.88467e-05 9.99954e-05
          9.99923e-05 0.000100007 9.99976e-05 0.0001 0.0001 9.99983e-05 0.000100007 9.99916e-05 9.9978e-05 9.85476e-05 9.88314e-05 9.90193e-05
          9.91388e-05 9.91568e-05 9.91384e-05 9.90184e-05 9.88305e-05 9.85554e-05 9.99886e-05 9.99919e-05 0.000100007 9.99983e-05 0.0001 0.0001
          9.99988e-05 0.000100006 9.99915e-05 9.99676e-05 9.82423e-05 9.85711e-05 9.87898e-05 9.89281e-05 9.8951e-05 9.89277e-05 9.87888e-05 9.85701e-05
          9.82508e-05 9.99788e-05 9.99918e-05 0.000100006 9.99988e-05 0.0001 0.0001 0.00010001 0.000100013 9.99965e-05 9.99657e-05 9.80956e-05
          9.84423e-05 9.86737e-05 9.88199e-05 9.88447e-05 9.88195e-05 9.86727e-05 9.84414e-05 9.81043e-05 9.9977e-05 9.99969e-05 0.000100013 0.00010001
          0.0001
        </DataArray>
        <DataArray type="Float32" Name="temperature" NumberOfComponents="1" format="ascii">
          283.15 283.15 283.15 283.15 283.15 283.15 283.15 283.15 283.15 283.15 283.15 283.15
          283.15 283.15 283.15 283.15 283.15 283.15 283.15 283.15 283.15 283.15 283.15 283.15
          283.15 283.15 283.15 283.15 283.15 283.15 283.15 283.15 283.15 283.15 283.15 283.15
          283.15 283.15 283.15 283.151 283.15 283.15 283.15 283.15 283.15 283.15 283.15 283.15
          283.15 283.15 283.15 283.15 283.15 283.15 283.15 283.151 283.15 283.15 283.153 283.151
          283.15 283.15 283.15 283.15 283.15 283.15 283.15 283.15 283.15 283.15 283.15 283.15
          283.15 283.151 283.153 283.15 283.15 283.155 283.151 283.15 283.15 283.15 283.15 283.15
          283.15 283.15 283.15 283.15 283.15 283.15 283.15 283.15 283.151 283.155 283.15 283.15
          283.157 283.152 283.151 283.15 283.15 283.15 283.15 283.15 283.15 283.15 283.15 283.15
          283.15 283.15 283.151 283.152 283.157 283.15 283.15 283.159 283.153 283.151 283.151 283.151
          283.151 283.15 283.151 283.15 283.151 283.15 283.151 283.151 283.151 283.151 283.154 283.159
          283.15 283.15 283.16 283.155 283.152 283.151 283.153 283.152 283.151 283.151 283.151 283.151
          283.151 283.152 283.153 283.151 283.152 283.155 283.16 283.15 283.15 283.161 283.156 283.153
          283.152 283.156 283.155 283.153 283.153 283.153 283.153 283.153 283.155 283.156 283.152 283.153
          283.156 283.161 283.15 283.15 283.161 283.157 283.153 283.153 283.162 283.159 283.157 283.156
          283.155 283.156 283.157 283.159 283.162 283.152 283.153 283.157 283.161 283.15 283.15 283.161
          283.158 283.154 283.153 283.171 283.166 283.162 283.161 283.16 283.161 283.162 283.166 283.171
          283.153 283.154 283.158 283.161 283.15 283.15 283.161 283.159 283.155 283.154 283.183 283.176
          283.17 283.168 283.166 283.168 283.17 283.176 283.183 283.154 283.155 283.159 283.161 283.15
          283.15 283.16 283.16 283.155 283.155 283.199 283.189 283.18 283.177 283.175 283.177 283.18
          283.189 283.199 283.155 283.155 283.16 283.16 283.15 283.15 283.16 283.16 283.156 283.156
          283.219 283.205 283.193 283.189 283.186 283.189 283.193 283.205 283.218 283.156 283.156 283.16
          283.16 283.15 283.15 283.159 283.16 283.156 283.158 283.242 283.225 283.21 283.204 283.2
          283.204 283.21 283.225 283.242 283.157 283.156 283.16 283.159 283.15 283.15 283.158 283.16
          283.157 283.159 283.269 283.248 283.229 283.221 283.217 283.221 283.229 283.248 283.269 283.158
          283.157 283.16 283.158 283.15 283.15 283.157 283.16 283.157 283.16 283.299 283.273 283.25
          283.241 283.236 283.241 283.25 283.273 283.298 283.159 283.157 283.16 283.157 283.15 283.15
          283.156 283.159 283.157 283.161 283.33 283.299 283.274 283.262 283.257 283.262 283.274 283.299
          283.329 283.161 283.157 283.159 283.156 283.15 283.15 283.157 283.16 283.158 283.163 283.346
          283.313 283.286 283.274 283.268 283.274 283.286 283.313 283.345 283.162 283.158 283.16 283.157
          283.15
        </DataArray>
        <DataArray type="Float32" Name="density_gas" NumberOfComponents="1" format="ascii">
          1.23034 1.23034 1.23033 1.23033 1.23034 1.23033 1.23034 1.23033 1.23034 1.23033 1.23034 1.23033
          1.23034 1.23033 1.23034 1.23033 1.23034 1.23033 1.23034 1.23033 1.23034 1.23033 1.23034 1.23033
          1.23034 1.23033 1.23034 1.23033 1.23034 1.23033 1.23034 1.23033 1.23034 1.23033 1.23034 1.23033
          1.23034 1.23033 1.23032 1.23031 1.23032 1.23032 1.23032 1.23032 1.23032 1.23032 1.23032 1.23032
          1.23032 1.23032 1.23032 1.23032 1.23032 1.23032 1.23032 1.23031 1.23032 1.23031 1.2303 1.23031
          1.23031 1.23031 1.23031 1.23031 1.23031 1.23031 1.23031 1.23031 1.23031 1.23031 1.23031 1.23031
          1.23031 1.23031 1.2303 1.23031 1.2303 1.23028 1.2303 1.2303 1.2303 1.2303 1.2303 1.2303
          1.2303 1.2303 1.2303 1.2303 1.2303 1.2303 1.2303 1.2303 1.2303 1.23028 1.2303 1.2303
          1.23026 1.23029 1.23029 1.23029 1.23029 1.23029 1.2303 1.23029 1.2303 1.23029 1.2303 1.23029
          1.23029 1.23029 1.23029 1.23029 1.23026 1.2303 1.23029 1.23025 1.23027 1.23028 1.23028 1.23028
          1.23028 1.23029 1.23028 1.23029 1.23028 1.23029 1.23028 1.23028 1.23028 1.23028 1.23027 1.23025
          1.23029 1.23028 1.23023 1.23026 1.23027 1.23027 1.23027 1.23027 1.23027 1.23027 1.23027 1.23027
          1.23027 1.23027 1.23027 1.23027 1.23027 1.23026 1.23024 1.23028 1.23027 1.23022 1.23024 1.23026
          1.23026 1.23024 1.23025 1.23026 1.23026 1.23026 1.23026 1.23026 1.23025 1.23024 1.23026 1.23026
          1.23024 1.23022 1.23027 1.23026 1.23021 1.23023 1.23025 1.23025 1.23021 1.23022 1.23023 1.23024
          1.23024 1.23024 1.23023 1.23022 1.23021 1.23025 1.23025 1.23023 1.23021 1.23026 1.23025 1.23021
          1.23022 1.23024 1.23024 1.23016 1.23018 1.2302 1.23021 1.23021 1.23021 1.2302 1.23018 1.23016
          1.23024 1.23024 1.23022 1.23021 1.23025 1.23025 1.2302 1.23021 1.23023 1.23023 1.2301 1.23013
          1.23016 1.23017 1.23018 1.23017 1.23016 1.23013 1.2301 1.23023 1.23023 1.23021 1.2302 1.23025
          1.23024 1.23019 1.2302 1.23021 1.23021 1.23003 1.23007 1.23011 1.23012 1.23013 1.23012 1.23011
          1.23007 1.23003 1.23022 1.23021 1.2302 1.23019 1.23024 1.23023 1.23019 1.23019 1.2302 1.2302
          1.22993 1.22999 1.23004 1.23006 1.23007 1.23006 1.23004 1.22999 1.22993 1.2302 1.2302 1.23019
          1.23019 1.23023 1.23022 1.23018 1.23018 1.23019 1.23019 1.22982 1.2299 1.22996 1.22999 1.23
          1.22999 1.22996 1.2299 1.22982 1.23019 1.23019 1.23018 1.23018 1.23022 1.23021 1.23018 1.23017
          1.23018 1.23018 1.2297 1.22979 1.22987 1.22991 1.22992 1.2299 1.22987 1.22979 1.2297 1.23018
          1.23018 1.23017 1.23018 1.23021 1.2302 1.23017 1.23016 1.23017 1.23016 1.22956 1.22967 1.22977
          1.22981 1.22983 1.22981 1.22977 1.22967 1.22956 1.23016 1.23017 1.23016 1.23017 1.2302 1.2302
          1.23017 1.23016 1.23017 1.23015 1.22942 1.22955 1.22966 1.22971 1.22973 1.22971 1.22966 1.22955
          1.22942 1.23015 1.23017 1.23016 1.23017 1.2302 1.23019 1.23016 1.23015 1.23015 1.23013 1.22934
          1.22948 1.2296 1.22965 1.22968 1.22965 1.2296 1.22948 1.22934 1.23014 1.23015 1.23015 1.23016
          1.23019
        </DataArray>
        <DataArray type="Float32" Name="viscosity_gas" NumberOfComponents="1" format="ascii">
          1.75168e-05 1.75168e-05 1.75168e-05 1.75169e-05 1.75168e-05 1.75168e-05 1.75168e-05 1.75168e-05 1.75168e-05 1.75168e-05 1.75168e-05 1.75168e-05
          1.75168e-05 1.75168e-05 1.75168e-05 1.75168e-05 1.75168e-05 1.75168e-05 1.75168e-05 1.75168e-05 1.75168e-05 1.75168e-05 1.75168e-05 1.75168e-05
          1.75168e-05 1.75168e-05 1.75168e-05 1.75168e-05 1.75168e-05 1.75168e-05 1.75168e-05 1.75168e-05 1.75168e-05 1.75168e-05 1.75168e-05 1.75169e-05
          1.75168e-05 1.75168e-05 1.75168e-05 1.75169e-05 1.75169e-05 1.75168e-05 1.75168e-05 1.75168e-05 1.75168e-05 1.75168e-05 1.75168e-05 1.75168e-05
          1.75168e-05 1.75168e-05 1.75168e-05 1.75168e-05 1.75168e-05 1.75168e-05 1.75169e-05 1.75169e-05 1.75168e-05 1.75168e-05 1.7517e-05 1.75169e-05
          1.75168e-05 1.75168e-05 1.75168e-05 1.75168e-05 1.75168e-05 1.75168e-05 1.75168e-05 1.75168e-05 1.75168e-05 1.75168e-05 1.75168e-05 1.75168e-05
          1.75168e-05 1.75169e-05 1.7517e-05 1.75168e-05 1.75168e-05 1.75171e-05 1.75169e-05 1.75169e-05 1.75169e-05 1.75168e-05 1.75168e-05 1.75168e-05
          1.75168e-05 1.75168e-05 1.75168e-05 1.75168e-05 1.75168e-05 1.75168e-05 1.75169e-05 1.75169e-05 1.75169e-05 1.75171e-05 1.75168e-05 1.75168e-05
          1.75172e-05 1.7517e-05 1.75169e-05 1.75169e-05 1.75169e-05 1.75169e-05 1.75168e-05 1.75168e-05 1.75168e-05 1.75168e-05 1.75168e-05 1.75169e-05
          1.75169e-05 1.75169e-05 1.75169e-05 1.7517e-05 1.75172e-05 1.75168e-05 1.75168e-05 1.75173e-05 1.7517e-05 1.75169e-05 1.75169e-05 1.75169e-05
          1.75169e-05 1.75169e-05 1.75169e-05 1.75169e-05 1.75169e-05 1.75169e-05 1.75169e-05 1.75169e-05 1.75169e-05 1.75169e-05 1.7517e-05 1.75173e-05
          1.75168e-05 1.75168e-05 1.75173e-05 1.75171e-05 1.75169e-05 1.75169e-05 1.7517e-05 1.75169e-05 1.75169e-05 1.75169e-05 1.75169e-05 1.75169e-05
          1.75169e-05 1.75169e-05 1.7517e-05 1.75169e-05 1.75169e-05 1.75171e-05 1.75173e-05 1.75168e-05 1.75168e-05 1.75174e-05 1.75171e-05 1.7517e-05
          1.75169e-05 1.75171e-05 1.75171e-05 1.7517e-05 1.7517e-05 1.7517e-05 1.7517e-05 1.7517e-05 1.75171e-05 1.75171e-05 1.75169e-05 1.7517e-05
          1.75171e-05 1.75174e-05 1.75168e-05 1.75168e-05 1.75174e-05 1.75172e-05 1.7517e-05 1.7517e-05 1.75174e-05 1.75173e-05 1.75172e-05 1.75171e-05
          1.75171e-05 1.75171e-05 1.75172e-05 1.75173e-05 1.75174e-05 1.7517e-05 1.7517e-05 1.75172e-05 1.75174e-05 1.75168e-05 1.75168e-05 1.75174e-05
          1.75172e-05 1.7517e-05 1.7517e-05 1.75179e-05 1.75176e-05 1.75174e-05 1.75174e-05 1.75173e-05 1.75174e-05 1.75174e-05 1.75176e-05 1.75179e-05
          1.7517e-05 1.7517e-05 1.75172e-05 1.75174e-05 1.75168e-05 1.75168e-05 1.75174e-05 1.75173e-05 1.75171e-05 1.7517e-05 1.75185e-05 1.75181e-05
          1.75178e-05 1.75177e-05 1.75176e-05 1.75177e-05 1.75178e-05 1.75181e-05 1.75184e-05 1.7517e-05 1.75171e-05 1.75173e-05 1.75174e-05 1.75168e-05
          1.75168e-05 1.75173e-05 1.75173e-05 1.75171e-05 1.75171e-05 1.75192e-05 1.75187e-05 1.75183e-05 1.75182e-05 1.75181e-05 1.75182e-05 1.75183e-05
          1.75187e-05 1.75192e-05 1.75171e-05 1.75171e-05 1.75173e-05 1.75173e-05 1.75168e-05 1.75168e-05 1.75173e-05 1.75173e-05 1.75171e-05 1.75171e-05
          1.75202e-05 1.75195e-05 1.7519e-05 1.75187e-05 1.75186e-05 1.75187e-05 1.7519e-05 1.75195e-05 1.75202e-05 1.75171e-05 1.75171e-05 1.75173e-05
          1.75173e-05 1.75168e-05 1.75168e-05 1.75173e-05 1.75173e-05 1.75172e-05 1.75172e-05 1.75213e-05 1.75205e-05 1.75197e-05 1.75195e-05 1.75193e-05
          1.75195e-05 1.75198e-05 1.75205e-05 1.75213e-05 1.75172e-05 1.75172e-05 1.75173e-05 1.75173e-05 1.75168e-05 1.75168e-05 1.75172e-05 1.75173e-05
          1.75172e-05 1.75173e-05 1.75226e-05 1.75216e-05 1.75207e-05 1.75203e-05 1.75201e-05 1.75203e-05 1.75207e-05 1.75216e-05 1.75226e-05 1.75172e-05
          1.75172e-05 1.75173e-05 1.75172e-05 1.75168e-05 1.75168e-05 1.75172e-05 1.75173e-05 1.75172e-05 1.75173e-05 1.75241e-05 1.75228e-05 1.75217e-05
          1.75213e-05 1.7521e-05 1.75213e-05 1.75217e-05 1.75228e-05 1.75241e-05 1.75173e-05 1.75172e-05 1.75173e-05 1.75172e-05 1.75168e-05 1.75168e-05
          1.75171e-05 1.75173e-05 1.75172e-05 1.75174e-05 1.75256e-05 1.75241e-05 1.75229e-05 1.75223e-05 1.75221e-05 1.75223e-05 1.75229e-05 1.75241e-05
          1.75256e-05 1.75174e-05 1.75172e-05 1.75173e-05 1.75171e-05 1.75168e-05 1.75168e-05 1.75172e-05 1.75173e-05 1.75172e-05 1.75175e-05 1.75264e-05
          1.75248e-05 1.75235e-05 1.75229e-05 1.75226e-05 1.75229e-05 1.75235e-05 1.75248e-05 1.75264e-05 1.75174e-05 1.75172e-05 1.75173e-05 1.75172e-05
          1.75168e-05
        </DataArray>
        <DataArray type="Float32" Name="enthalpy_gas" NumberOfComponents="1" format="ascii">
          10292.9 10292.9 10292.9 10293.3 10292.9 10293 10292.9 10292.9 10292.9 10292.9 10292.9 10292.9
          10292.9 10292.9 10292.9 10292.9 10292.9 10292.9 10292.9 10292.9 10292.9 10292.9 10292.9 10292.9
          10292.9 10292.9 10292.9 10292.9 10292.9 10292.9 10292.9 10292.9 10292.9 10293 10292.9 10293.3
          10292.9 10292.9 10292.9 10294.4 10293.2 10293 10293 10292.9 10293 10292.9 10293 10292.9
          10293 10292.9 10293 10292.9 10293 10293 10293.2 10294.4 10292.9 10292.9 10296.1 10293.6
          10293.1 10293.1 10293 10293 10292.9 10293 10292.9 10293 10292.9 10293 10293 10293.1
          10293.1 10293.7 10296.1 10292.9 10292.9 10298.2 10294.4 10293.3 10293.2 10293 10293.1 10293
          10293 10292.9 10293 10293 10293.1 10293 10293.2 10293.4 10294.4 10298.1 10292.9 10292.9
          10300.1 10295.3 10293.7 10293.4 10293.2 10293.2 10293 10293.1 10293 10293.1 10293 10293.2
          10293.2 10293.4 10293.7 10295.3 10300.1 10292.9 10292.9 10301.9 10296.4 10294.2 10293.8 10294
          10293.8 10293.4 10293.5 10293.3 10293.5 10293.4 10293.8 10294 10293.7 10294.2 10296.5 10301.8
          10292.9 10292.9 10303.1 10297.7 10294.8 10294.2 10295.7 10295.1 10294.3 10294.3 10294 10294.3
          10294.3 10295.1 10295.7 10294.2 10294.8 10297.7 10303.1 10292.9 10292.9 10303.9 10298.9 10295.5
          10294.8 10299.2 10297.7 10296.2 10296 10295.5 10296 10296.2 10297.7 10299.1 10294.7 10295.5
          10298.9 10303.9 10292.9 10292.9 10304.2 10300.1 10296.3 10295.5 10304.9 10302.1 10299.5 10299
          10298.2 10299 10299.5 10302.1 10304.9 10295.4 10296.3 10300.1 10304.2 10292.9 10292.9 10304.2
          10301.1 10297 10296.3 10313.6 10308.9 10304.8 10303.6 10302.5 10303.6 10304.8 10309 10313.4
          10296.1 10297 10301.1 10304.2 10292.9 10292.9 10303.8 10302 10297.7 10297.3 10325.4 10318.6
          10312.3 10310.3 10308.8 10310.3 10312.3 10318.6 10325.2 10297 10297.7 10302 10303.8 10292.9
          10292.9 10303.3 10302.6 10298.4 10298.3 10340.9 10331.3 10322.5 10319.4 10317.4 10319.5 10322.6
          10331.4 10340.6 10297.9 10298.4 10302.6 10303.3 10292.9 10292.9 10302.5 10303 10298.9 10299.3
          10360.2 10347.4 10335.6 10331.2 10328.6 10331.2 10335.6 10347.4 10359.8 10298.8 10298.9 10303
          10302.5 10292.9 10292.9 10301.7 10303.2 10299.4 10300.5 10383.3 10366.6 10351.6 10345.7 10342.4
          10345.7 10351.6 10366.7 10382.9 10299.8 10299.4 10303.1 10301.7 10292.9 10292.9 10300.8 10303.1
          10299.8 10301.7 10409.9 10388.8 10370.3 10362.7 10358.8 10362.8 10370.4 10388.9 10409.4 10300.9
          10299.7 10303.1 10300.8 10292.9 10292.9 10299.9 10302.8 10300 10303 10439 10413.4 10391.4
          10382.1 10377.5 10382.1 10391.5 10413.4 10438.4 10302.2 10300 10302.8 10299.9 10292.9 10292.9
          10299 10302.4 10300.2 10304.4 10469.3 10439.5 10414.3 10403.3 10398 10403.3 10414.3 10439.5
          10468.7 10303.5 10300.2 10302.4 10299 10292.9 10292.9 10299.6 10302.9 10300.8 10305.5 10485.5
          10453.3 10426.3 10414.4 10408.8 10414.4 10426.4 10453.4 10484.8 10304.6 10300.8 10302.8 10299.6
          10292.9
        </DataArray>
        <DataArray type="Float32" Name="velocity_gas" NumberOfComponents="3" format="ascii">
          0 0 0 0 0.104938 0 0 0 0 -0.000234806 0.104726 0
          0 0.197531 0 0.000638368 0.197204 0 0 0.277778 0 0.000642967 0.277568 0
          0 0.345679 0 0.00128804 0.345519 0 0 0.401235 0 0.0010554 0.401368 0
          0 0.444444 0 0.00117801 0.444588 0 0 0.475309 0 0.00072213 0.475634 0
          0 0.493827 0 0.000450412 0.494084 0 0 0.5 0 -2.91973e-06 0.500371 0
          0 0.493827 0 -0.000456237 0.494084 0 0 0.475309 0 -0.000727623 0.475634 0
          0 0.444444 0 -0.00118303 0.444588 0 0 0.401235 0 -0.00105946 0.401368 0
          0 0.345679 0 -0.00129095 0.345519 0 0 0.277778 0 -0.00064473 0.277567 0
          0 0.197531 0 -0.000640139 0.197205 0 0 0.104938 0 0.000233524 0.104725 0
          0 0 0 0 0 0 0 0 0 -0.000219144 0.104299 0
          0.000872525 0.196675 0 0.000873418 0.277211 0 0.00169079 0.345249 0 0.00138569 0.401428 0
          0.0013958 0.444718 0 0.000855395 0.476047 0 0.000505397 0.494433 0 -3.06942e-06 0.500884 0
          -0.000511544 0.494433 0 -0.000861334 0.476047 0 -0.00140129 0.444717 0 -0.00139019 0.401426 0
          -0.00169348 0.345247 0 -0.000874818 0.27721 0 -0.00087379 0.196675 0 0.000218475 0.104297 0
          0 0 0 0 0 0 -0.00022646 0.103746 0 0.00119652 0.196025 0
          0.00121345 0.276766 0 0.00228213 0.344893 0 0.00188884 0.401799 0 0.00175843 0.445079 0
          0.00107252 0.476631 0 0.000594333 0.4949 0 -3.19163e-06 0.501476 0 -0.000600855 0.4949 0
          -0.00107901 0.47663 0 -0.00176501 0.445078 0 -0.00189459 0.401795 0 -0.00228396 0.344888 0
          -0.00121366 0.276765 0 -0.00119714 0.196025 0 0.000226532 0.103743 0 0 0 0
          0 0 0 -0.000280799 0.10293 0 0.00170676 0.195141 0 0.00170257 0.276087 0
          0.00360943 0.344324 0 0.00300044 0.402269 0 0.00213047 0.445558 0 0.00133056 0.477304 0
          0.000648965 0.495464 0 -3.32464e-06 0.502132 0 -0.00065598 0.495464 0 -0.00133775 0.477303 0
          -0.00213885 0.445557 0 -0.00300833 0.402261 0 -0.00360975 0.344315 0 -0.00170074 0.276086 0
          -0.00170653 0.195141 0 0.000281885 0.102927 0 0 0 0 0 0 0
          -0.000357389 0.101799 0 0.00225896 0.19402 0 0.00223436 0.274827 0 0.00521561 0.343108 0
          0.00442699 0.403824 0 0.0026102 0.446763 0 0.00167731 0.478126 0 0.000729071 0.496232 0
          -3.44119e-06 0.50279 0 -0.000736434 0.496233 0 -0.00168504 0.478127 0 -0.0026196 0.446764 0
          -0.00443596 0.403811 0 -0.00521505 0.343092 0 -0.00223132 0.274826 0 -0.00225805 0.194021 0
          0.000359177 0.101797 0 0 0 0 0 0 0 -0.000376275 0.100361 0
          0.0026801 0.192629 0 0.00269282 0.273144 0 0.00616159 0.341408 0 0.00532223 0.405658 0
          0.00318482 0.448277 0 0.00204625 0.479086 0 0.00088152 0.497184 0 -3.54162e-06 0.503547 0
          -0.00088908 0.497184 0 -0.00205432 0.479087 0 -0.00319449 0.448279 0 -0.00533128 0.405639 0
          -0.00616074 0.341385 0 -0.00268936 0.273144 0 -0.00267869 0.19263 0 0.000378496 0.100359 0
          0 0 0 0 0 0 -0.000374076 0.098745 0 0.00296441 0.19105 0
          0.00301475 0.271319 0 0.0067021 0.339572 0 0.00581397 0.407806 0 0.00355525 0.45007 0
          0.00227655 0.480283 0 0.000984842 0.498313 0 -3.52063e-06 0.504451 0 -0.000992342 0.498314 0
          -0.00228462 0.480286 0 -0.00356482 0.450073 0 -0.00582277 0.407781 0 -0.00670107 0.339541 0
          -0.00301113 0.27132 0 -0.0029627 0.191052 0 0.000376476 0.0987441 0 0 0 0
          0 0 0 -0.000349627 0.0969825 0 0.00311188 0.189331 0 0.00319802 0.269373 0
          0.00694763 0.337625 0 0.00606226 0.409868 0 0.00379449 0.451865 0 0.00242904 0.481521 0
          0.00106515 0.499501 0 -3.40159e-06 0.505414 0 -0.00107238 0.499502 0 -0.00243684 0.481525 0
          -0.00380365 0.451869 0 -0.00607049 0.409837 0 -0.00694653 0.337587 0 -0.00319446 0.269374 0
          -0.00311006 0.189333 0 0.000352015 0.0969828 0 0 0 0 0 0 0
          -0.000320314 0.0951968 0 0.00313156 0.187582 0 0.00324396 0.267451 0 0.00695191 0.33571 0
          0.0060903 0.412038 0 0.00384928 0.453763 0 0.00246618 0.482886 0 0.00108808 0.500772 0
          -3.14351e-06 0.506473 0 -0.00109478 0.500774 0 -0.0024734 0.482891 0 -0.00385778 0.453768 0
          -0.00609783 0.412001 0 -0.00695077 0.335665 0 -0.00324057 0.267454 0 -0.00312976 0.187584 0
          0.000322538 0.0951982 0 0 0 0 0 0 0 -0.000288137 0.0934093 0
          0.00304292 0.185839 0 0.00317348 0.265518 0 0.00678324 0.333787 0 0.00596779 0.414035 0
          0.00375143 0.455556 0 0.00241455 0.484165 0 0.00106228 0.501998 0 -2.78739e-06 0.507487 0
          -0.00106825 0.502 0 -0.00242092 0.484171 0 -0.00375895 0.455562 0 -0.00597433 0.413994 0
          -0.00678219 0.333736 0 -0.00317051 0.26552 0 -0.00304132 0.185842 0 0.000290027 0.0934118 0