<?xml version="1.0"?>
<VTKFile type="UnstructuredGrid" version="0.1" byte_order="LittleEndian">
  <UnstructuredGrid>
    <Piece NumberOfCells="166" NumberOfPoints="199">
      <CellData Scalars="wetting potential" Vectors="wetting-velocity">
        <DataArray type="Float32" Name="wetting potential" NumberOfComponents="1" format="ascii">
          100032 100094 100154 100210 100257 100276 100265 100220 100145 100050 100033 100094
          100155 100213 100264 100283 100274 100228 100149 100052 100035 100095 100156 100217
          100278 100298 100292 100244 100159 100055 100039 100096 100157 100222 100304 100318
          100320 100269 100173 100059 100048 100196 100338 100394 100346 100342 100362 100306
          100191 100065 100081 100316 100529 100617 100533 100538 100654 100389 100360 100382
          100424 100488 100399 100357 100213 100071 100097 100321 100484 100595 100604 100490
          100749 100834 101436 100793 100968 101173 102700 102162 101162 100926 102154 102696
          100728 100607 100659 101396 100446 100350 100370 100470 100234 100077 100104 100327
          100496 100612 100624 100502 100791 101806 101040 100775 102782 103531 101718 101177
          103530 102795 101131 101708 101819 100672 100669 100936 100491 100386 100401 100514
          100252 100082 100108 100332 100567 100769 100923 100884 100759 101047 101220 101101
          100979 101199 100986 100913 101077 100831 100669 100664 100796 100470 100264 100086
          100109 100335 100569 100751 100860 100849 100747 100940 101032 101000 100922 101007
          100872 100853 100973 100774 100659 100656 100764 100478 100271 100088
        </DataArray>
        <DataArray type="Float32" Name="wetting pressure" NumberOfComponents="1" format="ascii">
          193227 193289 193349 193405 193452 193471 193460 193415 193340 193245 183418 183480
          183540 183598 183649 183668 183659 183613 183534 183437 173610 173670 173731 173792
          173853 173873 173867 173819 173734 173630 163804 163861 163922 163987 164069 164083
          164085 164034 163938 163824 154003 154151 154293 154349 154301 154297 154317 154261
          154146 154020 144226 144461 144674 147214 147131 142230 142346 144534 144505 146980
          147021 142181 142091 144502 144358 144216 134432 134656 137272 137383 132486 132373
          137536 137622 133318 132676 137756 137960 134582 134044 137949 137714 134037 134578
          137515 137394 132542 133278 137234 137137 132252 132352 134569 134412 124629 124852
          127473 127589 122696 122574 127768 128784 123113 122847 129760 130508 123790 123249
          130507 129773 123203 123781 128797 127650 122741 123009 127469 127364 122473 122586
          124777 124607 114823 115047 115282 117937 118091 113146 113022 118215 118388 113364
          113242 118366 118153 113176 113340 117999 117837 112927 113058 115185 114979 114801
          105014 105240 105474 108109 108218 103301 103199 108297 108390 103452 103374 108364
          108229 103305 103426 108132 108017 103109 103217 105383 105176 104993
        </DataArray>
        <DataArray type="Float32" Name="nonwetting pressure" NumberOfComponents="1" format="ascii">
          193727 193789 193849 193905 193952 193971 193960 193915 193840 193745 183918 183980
          184040 184098 184149 184168 184159 184113 184034 183937 174110 174170 174231 174292
          174353 174373 174367 174319 174234 174130 164304 164361 164422 164487 164569 164583
          164585 164534 164438 164324 154503 159151 159293 159349 154801 154797 154817 154761
          154646 154520 144726 144961 145174 147714 147631 142730 142846 145034 145005 147480
          147521 142681 142591 145002 144858 144716 134932 135156 137772 137883 132986 132873
          138051 142622 138318 133221 142756 142960 139582 139044 142949 142714 139037 139578
          142515 137915 133091 138278 137734 137637 132752 132853 135069 134912 125129 125352
          127973 128091 123196 123074 128327 129655 123687 123349 130607 131366 124508 123887
          131366 130620 123848 124500 129659 128211 123244 123589 127971 127864 122973 123086
          125277 125107 115323 115547 115782 118437 118593 113648 113522 118755 118983 113953
          113773 118962 118696 113709 113929 118502 118337 113427 113560 115685 115479 115301
          105514 105740 105974 108609 108718 103802 103699 108823 108979 104042 103894 108954
          108757 103827 104015 108633 108517 103609 103718 105883 105676 105493
        </DataArray>
        <DataArray type="Float32" Name="nonwetting potential" NumberOfComponents="1" format="ascii">
          57662.6 57724.3 57784.1 57840.6 57887.1 57906.1 57895.8 57850.8 57775 57680.6 62175.9 62237.4
          62297.5 62355.7 62406.6 62426.1 62417 62371 62292.3 62194.7 66690.3 66750.8 66811.3 66872.7
          66933.9 66953.1 66947.5 66899.5 66814.3 66710.3 71207 71264.3 71325 71389.7 71471.8 71486.4
          71488.5 71437.4 71340.9 71227.2 75728.8 80377.1 80518.5 80574.3 76026.4 76022.9 76042.9 75986.5
          75872 75745.3 80274.7 80509.3 80722.8 79681.9 79598.5 81859.2 81975.4 80582 80553.5 79447.6
          79488.9 81810.2 81720.4 80550.1 80406 80264 84802.6 85027.2 84062.1 84173.2 86438 86324.4
          84341 88911.8 91769.8 86672.5 89045.9 89250.6 93033.6 92495.9 89239.4 89004.2 92488.3 93029.7
          88805.4 84204.8 86542.1 91729.9 84024.1 83927.6 86203.9 86304.5 84939.5 84782.7 89322.6 89545.9
          88586.3 88703.6 90970.3 90848.1 88939.5 90267.9 91460.9 91123.6 91219.7 91979.2 92282.6 91661.4
          91978.3 91232.5 91622.5 92274.3 90271.6 88823.7 91018.4 91363.5 88583.5 88476.8 90747.5 90860.4
          89470.1 89300.4 93839 94063.4 94298 93372 93528.4 95744.5 95618.6 93690.1 93918.6 96049.8
          95870 93897.3 93631 95805.7 96025.7 93437.2 93272.2 95523.5 95656.9 94201.1 93995.5 93816.8
          98353.1 98578.2 98812.4 97866.9 97976.4 100221 100119 98081.5 98237.2 100461 100314 98211.7
          98015.1 100246 100435 97891.1 97774.9 100028 100137 98722 98514.3 98331.3
        </DataArray>
        <DataArray type="Float32" Name="capillary pressure" NumberOfComponents="1" format="ascii">
          500 500 500 500 500 500 500 500 500 500 500 500
          500 500 500 500 500 500 500 500 500 500 500 500
          500 500 500 500 500 500 500 500 500 500 500 500
          500 500 500 500 500 5000 5000 5000 500 500 500 500
          500 500 500 500 500 500.004 500.004 500.004 500.161 500 500 500.004
          500.004 500.517 500.004 500 500 500 500 500 500 500.003 500.336 500
          514.548 5000 5000 545.039 5000 5000 5000 5000 5000 5000 5000 5000
          5000 520.174 548.739 5000 500.009 500 500 500.474 500 500 500 500
          500 501.559 500 500 558.508 871.106 574.043 502.108 847.033 858.058 718.002 638.1
          858.13 846.815 645.276 719.346 862.011 560.942 503.088 580.428 501.859 500 500 500
          500 500 500 500 500 500 502.256 501.277 500 539.959 595.358 589.066
          531.298 595.85 542.297 533.27 589.115 502.912 500 500 501.648 500 500 500
          500 500 500 500 500.846 500.482 500 526.212 589.284 589.692 520.271 589.311
          527.943 521.657 589.705 501.079 500 500 500.603 500 500 500
        </DataArray>
        <DataArray type="Float32" Name="wetting-velocity" NumberOfComponents="3" format="ascii">
          -3.15704e-06 -3.53596e-08 0 -3.03727e-06 -2.45285e-08 0 -2.90784e-06 -4.01854e-08 0 -2.57642e-06 -1.25525e-07 0
          -1.63774e-06 -3.43812e-07 0 -2.15677e-07 -3.67221e-07 0 1.3843e-06 -4.32769e-07 0 3.01869e-06 -3.84425e-07 0
          4.2551e-06 -2.33779e-07 0 4.8739e-06 -7.56212e-08 0 -3.18699e-06 -1.26466e-07 0 -3.03968e-06 -6.69636e-08 0
          -2.95834e-06 -1.03135e-07 0 -2.72823e-06 -3.4334e-07 0 -1.75859e-06 -1.08015e-06 0 -2.60156e-07 -1.09113e-06 0
          1.3757e-06 -1.32678e-06 0 3.11819e-06 -1.17885e-06 0 4.4095e-06 -7.03213e-07 0 5.0286e-06 -2.25135e-07 0
          -3.25376e-06 -2.95682e-07 0 -3.0256e-06 -8.548e-08 0 -3.04603e-06 -1.15077e-07 0 -3.06493e-06 -4.37002e-07 0
          -2.01164e-06 -1.99796e-06 0 -3.3899e-07 -1.75887e-06 0 1.34044e-06 -2.31668e-06 0 3.33047e-06 -2.0552e-06 0
          4.73195e-06 -1.17326e-06 0 5.33807e-06 -3.67697e-07 0 -3.37757e-06 -6.65289e-07 0 -2.94938e-06 -4.40469e-08 0
          -3.1341e-06 -5.39362e-08 0 -3.66967e-06 -2.20908e-07 0 -2.41952e-06 -3.36577e-06 0 -4.1952e-07 -2.22738e-06 0
          1.22753e-06 -3.51141e-06 0 3.6899e-06 -3.08667e-06 0 5.25325e-06 -1.62421e-06 0 5.79907e-06 -4.92716e-07 0
          -2.40638e-06 -2.12387e-06 0 -1.09492e-09 -2.19769e-09 0 -4.92956e-10 -3.72566e-09 0 9.97769e-11 -3.6293e-09 0
          8.88823e-08 -4.25251e-06 0 -4.11812e-07 -2.0903e-06 0 9.10797e-07 -5.13333e-06 0 4.27407e-06 -4.37758e-06 0
          6.02893e-06 -1.99241e-06 0 6.39653e-06 -5.81222e-07 0 -9.93429e-06 -2.42797e-06 0 -1.12025e-05 -2.66622e-07 0
          -8.78335e-06 -9.49193e-07 0 9.5134e-07 -3.69686e-06 0 9.2057e-06 -4.37955e-07 0 1.07209e-05 -4.42155e-07 0
          2.11514e-06 -1.1688e-05 0 5.69764e-06 -2.16178e-06 0 -3.4083e-07 -9.11448e-07 0 -3.0212e-06 -3.85276e-06 0
          9.12857e-07 -1.02926e-05 0 -8.98543e-07 -1.56661e-05 0 -5.59268e-06 -1.65525e-06 0 6.86203e-06 -5.27499e-06 0
          7.15143e-06 -2.11712e-06 0 7.08589e-06 -6.07541e-07 0 -1.04494e-05 -1.13853e-06 0 -1.11492e-05 -5.72051e-07 0
          -1.1063e-05 -1.22235e-06 0 -1.20141e-05 -2.08349e-06 0 -1.08096e-05 -1.59878e-06 0 -1.12025e-05 -1.1564e-06 0
          -6.45925e-06 -1.01911e-05 0 -1.52358e-09 -1.19432e-08 0 -1.00528e-08 -1.34304e-08 0 -5.17301e-06 -2.10598e-06 0
          -1.69392e-09 -2.40508e-08 0 -9.67451e-10 -2.99953e-08 0 -2.6687e-09 -3.18892e-08 0 -6.31905e-09 -2.43453e-08 0
          1.2322e-09 -3.01192e-08 0 2.16994e-09 -2.46482e-08 0 6.49909e-09 -2.50996e-08 0 2.72671e-09 -3.20229e-08 0
          2.20174e-09 -1.32555e-08 0 6.29045e-06 -1.15986e-05 0 4.86051e-06 -2.736e-06 0 1.11555e-08 -1.51482e-08 0
          1.11145e-05 -5.44512e-06 0 8.95475e-06 -4.34668e-06 0 9.27989e-06 -3.65967e-06 0 9.83223e-06 -4.42589e-06 0
          8.13606e-06 -1.94306e-06 0 7.75886e-06 -5.60235e-07 0 -1.07896e-05 -5.59971e-07 0 -1.12942e-05 -5.48402e-07 0
          -1.13762e-05 -1.1149e-06 0 -9.56125e-06 -1.96781e-06 0 -1.34937e-05 -1.72456e-06 0 -1.18446e-05 -9.28438e-07 0
          -3.92932e-06 9.08955e-07 0 -2.07587e-07 8.11621e-07 0 -4.76602e-06 6.4191e-06 0 -1.17373e-05 1.38917e-06 0
          -2.48932e-07 8.24892e-07 0 -9.7124e-08 5.83926e-07 0 -3.7237e-07 2.71261e-06 0 -7.94882e-07 4.92478e-06 0
          9.54322e-08 5.84234e-07 0 2.46163e-07 8.18509e-07 0 9.10444e-07 5.11083e-06 0 4.18784e-07 2.71152e-06 0
          2.21431e-07 8.64931e-07 0 3.82359e-06 -2.02897e-07 0 1.13684e-05 1.35869e-07 0 4.38638e-06 5.81732e-06 0
          8.8882e-06 -4.27617e-06 0 9.82694e-06 -3.0988e-06 0 1.04468e-05 -2.45662e-06 0 1.31266e-05 -3.47261e-06 0
          8.98755e-06 -1.54235e-06 0 8.33754e-06 -4.47339e-07 0 -1.10036e-05 -2.6429e-07 0 -1.14768e-05 -3.55163e-07 0
          -1.24703e-05 -5.45814e-07 0 -1.42396e-05 1.54273e-06 0 -1.11242e-05 9.37377e-06 0 -9.32311e-06 6.1152e-06 0
          -1.26312e-05 1.77107e-06 0 -5.09989e-06 7.28987e-06 0 -1.33447e-06 3.97168e-06 0 -1.0614e-06 2.9949e-06 0
          -4.43783e-06 5.35264e-06 0 1.95099e-06 3.99896e-06 0 6.10568e-06 7.56691e-06 0 5.45202e-06 5.45839e-06 0
          1.87014e-06 3.04564e-06 0 1.21588e-05 8.3029e-06 0 1.45846e-05 4.37927e-07 0 1.29473e-05 9.82834e-07 0
          1.02468e-05 5.44752e-06 0 1.17505e-05 -1.55935e-06 0 9.6084e-06 -9.52984e-07 0 8.75371e-06 -2.84359e-07 0
          -1.10993e-05 -7.80365e-08 0 -1.14822e-05 -1.13386e-07 0 -1.18864e-05 -8.87182e-08 0 -1.14391e-05 1.2655e-06 0
          -8.24571e-06 3.44804e-06 0 -7.92206e-06 1.10654e-06 0 -1.10876e-05 4.65048e-07 0 -3.84758e-06 3.24701e-06 0
          -7.76724e-07 1.67124e-06 0 -6.41496e-07 5.35953e-07 0 -3.69921e-06 1.09676e-06 0 1.63236e-06 1.7064e-06 0
          4.81789e-06 3.27392e-06 0 4.68954e-06 1.10294e-06 0 1.52579e-06 5.49121e-07 0 9.07971e-06 3.06924e-06 0
          1.17306e-05 7.94879e-07 0 1.13572e-05 3.0722e-07 0 8.7495e-06 9.80695e-07 0 1.12075e-05 -4.12034e-07 0
          9.76621e-06 -3.08598e-07 0 8.95621e-06 -9.64023e-08 0
        </DataArray>
        <DataArray type="Float32" Name="non-wetting-velocity" NumberOfComponents="3" format="ascii">
          0 0 0 0 0 0 0 0 0 0 0 0
          0 0 0 0 0 0 0 0 0 0 0 0
          0 0 0 0 0 0 0 0 0 0 0 0
          0 0 0 0 0 0 0 0 0 0 0 0
          0 0 0 0 0 0 0 0 0 0 0 0
          0 0 0 0 0 0 0 0 0 0 0 0
          0 0 0 0 0 0 0 0 0 0 0 0
          0 0 0 0 0 0 0 0 0 0 0 0
          0 0 0 0 0 0 0 0 0 0 0 0
          0 0 0 0 0 0 0 0 0 0 0 0
          0 0 0 0 0 0 0 0 0 0 -1.05263e-22 0
          0 0 0 0 0 0 0 -8.52731e-18 0 0 -1.42954e-35 0
          0 0 0 0 0 0 0 0 0 0 0 0
          -4.8551e-15 -1.59209e-18 0 7.90714e-20 -6.09386e-13 0 2.9866e-19 -7.33363e-18 0 1.5436e-14 -7.33342e-18 0
          5.72512e-15 -4.34761e-07 0 4.66469e-19 0 0 -3.89309e-19 0 0 -1.12708e-19 -1.69546e-17 0
          3.02796e-20 -2.02083e-11 0 -8.8819e-14 -1.13815e-06 0 -3.90858e-13 -8.46678e-18 0 1.51019e-13 -5.28364e-17 0
          2.25703e-37 0 0 0 0 0 0 0 0 -2.31879e-25 0 0
          -7.79691e-20 -1.89613e-23 0 -1.54431e-08 -5.43352e-12 0 -5.266e-07 -5.42605e-10 0 -1.36293e-13 -8.27635e-23 0
          -1.54431e-08 -9.90133e-06 0 0 0 0 0 0 0 -5.266e-07 -2.10833e-05 0
          0 0 0 0 0 0 0 0 0 0 0 0
          0 0 0 0 0 0 0 0 0 0 0 0
          0 0 0 4.3116e-08 -1.23604e-05 0 6.55464e-07 -2.71392e-05 0 0 0 0
          4.3116e-08 -1.53328e-11 0 2.22968e-18 -1.35701e-23 0 3.38168e-13 -1.1229e-22 0 6.55464e-07 -9.30681e-10 0
          1.25554e-25 0 0 0 0 0 0 0 0 -1.65946e-24 0 0
          -1.39564e-11 -1.31488e-22 0 -1.0262e-06 -5.37172e-10 0 -4.50689e-11 -8.45799e-23 0 -3.7953e-24 -5.82134e-23 0
          -3.65183e-05 -1.16189e-05 0 -8.56284e-05 -5.76131e-05 0 -5.50151e-06 -5.76163e-05 0 -2.54372e-06 -2.19679e-09 0
          -8.96399e-05 -2.52773e-05 0 -3.94605e-05 -2.45957e-05 0 -1.48141e-05 -8.76957e-05 0 -1.80408e-05 -4.75391e-05 0
          3.88318e-05 -2.40887e-05 0 8.89447e-05 -2.31547e-05 0 2.03758e-05 -5.00193e-05 0 1.66503e-05 -8.70692e-05 0
          8.79985e-05 -5.18526e-05 0 3.89945e-05 -1.59239e-05 0 3.10086e-06 -7.01987e-09 0 7.09511e-06 -5.18602e-05 0
          1.15217e-06 -9.15348e-10 0 2.15382e-11 -1.80516e-22 0 7.69607e-24 -7.50254e-23 0 1.45513e-10 -2.41425e-22 0
          1.88225e-24 0 0 0 0 0 0 0 0 0 0 0
          -1.14741e-23 0 0 -5.63197e-11 -7.85454e-22 0 -2.60337e-07 -3.46424e-09 0 -1.03756e-07 -3.74071e-10 0
          -8.24759e-12 -5.21349e-24 0 -2.54385e-06 -2.53184e-05 0 -2.10308e-06 -9.67947e-05 0 -1.49073e-06 -6.618e-05 0
          -1.77277e-06 -4.92442e-06 0 2.82741e-06 -9.68237e-05 0 3.00895e-06 -3.0454e-05 0 2.16306e-06 -5.80616e-06 0
          2.19586e-06 -6.63349e-05 0 3.62156e-07 -8.1583e-09 0 1.27515e-10 -7.20035e-21 0 1.87411e-11 -4.36634e-23 0
          1.45509e-07 -7.96993e-10 0 1.11389e-22 0 0 0 0 0 0 0 0
          0 0 0 0 0 0 -4.91203e-27 0 0 -2.08906e-12 -3.65168e-25 0
          -5.28626e-08 -1.00623e-10 0 -2.23533e-08 -1.5878e-11 0 -3.63342e-13 -4.24748e-26 0 -1.55627e-06 -2.81804e-06 0
          -1.31374e-06 -6.57529e-05 0 -1.2956e-06 -6.75143e-05 0 -1.51562e-06 -9.50292e-07 0 2.06787e-06 -6.57612e-05 0
          1.95281e-06 -3.35845e-06 0 1.92595e-06 -1.1417e-06 0 2.09172e-06 -6.75161e-05 0 7.46045e-08 -2.06608e-10 0
          4.59167e-12 -1.77403e-24 0 7.49805e-13 -1.01799e-25 0 3.18922e-08 -3.09273e-11 0 2.38043e-26 0 0
          0 0 0 0 0 0
        </DataArray>
        <DataArray type="Float32" Name="wetting saturation" NumberOfComponents="1" format="ascii">
          1 1 1 1 1 1 1 1 1 1 1 1
          1 1 1 1 1 1 1 1 1 1 1 1
          1 1 1 1 1 1 1 1 1 1 1 1
          1 1 1 1 1 1 1 1 1 1 1 1
          1 1 1 1 1 0.999978 0.999978 0.999978 0.999023 1 1 0.999977
          0.999977 0.996883 0.999977 1 1 1 1 1 1 0.999983 0.99798 1
          0.917379 1 1 0.771921 1 1 1 1 1 1 1 1
          1 0.887908 0.756418 1 0.999946 1 1 0.997154 1 1 1 1
          1 0.990696 0.999999 1 0.717449 0.189087 0.660676 0.987431 0.205671 0.197848 0.337667 0.481045
          0.197798 0.20583 0.465168 0.335779 0.195135 0.708152 0.981667 0.639129 0.988915 0.999999 1 0.999999
          1 1 1 1 1 0.999999 0.986583 0.992376 1 0.794008 0.592334 0.611531
          0.833483 0.590868 0.78378 0.824268 0.611377 0.982724 0.999998 1 0.990177 1 1 1
          1 1 1 1 0.994941 0.997111 1 0.857882 0.610852 0.609585 0.887608 0.610768
          0.849474 0.880554 0.609546 0.993553 1 1 0.996393 1 1 1
        </DataArray>
        <DataArray type="Float32" Name="nonwetting saturation" NumberOfComponents="1" format="ascii">
          -1.9984e-15 -5.10703e-15 4.10783e-15 4.44089e-15 6.66134e-16 -2.22045e-14 -5.15143e-14 -5.55112e-15 -2.44249e-15 2.79776e-14 2.54241e-14 -2.22045e-14
          -9.23706e-14 -6.23945e-14 -9.54792e-14 -9.4591e-14 -4.88498e-14 1.12133e-14 -7.32747e-15 -2.0739e-13 -6.90559e-14 -7.19425e-14 -7.03881e-14 -1.05693e-13
          -4.30767e-14 1.18794e-14 2.27596e-14 -6.52811e-14 -9.70335e-14 -2.41585e-13 -5.17364e-14 -1.42331e-13 -1.45883e-13 -1.21458e-13 -1.15241e-13 -4.21885e-14
          -1.20348e-13 -6.50591e-14 -9.14824e-14 -2.1938e-13 3.21965e-15 0 0 0 -3.26406e-14 -2.04281e-14 5.00711e-14 -7.06102e-14
          -9.99201e-14 -2.38698e-13 -4.28546e-14 1.92069e-14 7.3519e-13 2.23035e-05 2.23032e-05 2.23032e-05 0.000976694 -4.32987e-14 -8.43769e-14 2.33557e-05
          2.3371e-05 0.00311706 2.33559e-05 2.85399e-11 -8.85958e-14 -2.25153e-13 6.88338e-15 -5.4623e-14 2.42829e-07 1.70198e-05 0.00202013 2.42976e-07
          0.0826209 0 0 0.228079 0 0 0 0 0 0 0 0
          0 0.112092 0.243582 0 5.44847e-05 2.1657e-07 2.1698e-07 0.00284622 -4.95159e-14 -2.34923e-13 4.50751e-14 1.88738e-15
          4.80428e-07 0.0093035 5.06806e-07 4.44829e-07 0.282551 0.810913 0.339324 0.0125687 0.794329 0.802152 0.662333 0.518955
          0.802202 0.79417 0.534832 0.664221 0.804865 0.291848 0.0183331 0.360871 0.0110854 5.41655e-07 4.83459e-07 7.19462e-07
          -6.15064e-14 -2.30704e-13 -9.34808e-14 -5.72875e-14 -5.57332e-14 1.05142e-06 0.0134169 0.00762354 1.95347e-07 0.205992 0.407666 0.388469
          0.166517 0.409132 0.21622 0.175732 0.388623 0.0172758 2.24148e-06 3.99743e-07 0.00982258 -6.55032e-14 -1.20348e-13 -2.29816e-13
          1.70974e-14 -3.10862e-15 2.22045e-15 7.89043e-08 0.00505934 0.00288946 4.01105e-08 0.142118 0.389148 0.390415 0.112392 0.389232
          0.150526 0.119446 0.390454 0.00644668 1.36489e-07 5.36679e-08 0.00360678 1.18794e-14 -4.44089e-15 -2.9976e-14
        </DataArray>
      </CellData>
      <Points>
        <DataArray type="Float32" Name="Coordinates" NumberOfComponents="3" format="ascii">
          0 0 0 2 0 0 0 1 0 2 1 0
          4 0 0 4 1 0 6 0 0 6 1 0
          8 0 0 8 1 0 10 0 0 10 1 0
          12 0 0 12 1 0 14 0 0 14 1 0
          16 0 0 16 1 0 18 0 0 18 1 0
          20 0 0 20 1 0 0 2 0 2 2 0
          4 2 0 6 2 0 8 2 0 10 2 0
          12 2 0 14 2 0 16 2 0 18 2 0
          20 2 0 0 3 0 2 3 0 4 3 0
          6 3 0 8 3 0 10 3 0 12 3 0
          14 3 0 16 3 0 18 3 0 20 3 0
          0 4 0 2 4 0 4 4 0 6 4 0
          8 4 0 10 4 0 12 4 0 14 4 0
          16 4 0 18 4 0 20 4 0 0 5 0
          2 5 0 4 5 0 6 5 0 8 5 0
          10 5 0 12 5 0 14 5 0 16 5 0
          18 5 0 20 5 0 0 6 0 2 6 0
          4 6 0 6 6 0 7 5 0 6 5.5 0
          7 5.5 0 8 5.5 0 7 6 0 8 6 0
          10 6 0 12 6 0 13 5 0 12 5.5 0
          13 5.5 0 14 5.5 0 13 6 0 14 6 0
          16 6 0 18 6 0 20 6 0 0 7 0
          2 7 0 4 7 0 5 6 0 4 6.5 0
          5 6.5 0 6 6.5 0 5 7 0 6 7 0
          7 6.5 0 8 6.5 0 7 7 0 8 7 0
          9 6 0 9 6.5 0 10 6.5 0 9 7 0
          10 7 0 11 6 0 11 6.5 0 12 6.5 0
          11 7 0 12 7 0 13 6.5 0 14 6.5 0
          13 7 0 14 7 0 15 6 0 15 6.5 0
          16 6.5 0 15 7 0 16 7 0 18 7 0
          20 7 0 0 8 0 2 8 0 4 8 0
          4 7.5 0 5 7.5 0 6 7.5 0 5 8 0
          6 8 0 7 7.5 0 8 7.5 0 7 8 0
          8 8 0 9 7.5 0 10 7.5 0 9 8 0
          10 8 0 11 7.5 0 12 7.5 0 11 8 0
          12 8 0 13 7.5 0 14 7.5 0 13 8 0
          14 8 0 15 7.5 0 16 7.5 0 15 8 0
          16 8 0 18 8 0 20 8 0 0 9 0
          2 9 0 4 9 0 6 9 0 6 8.5 0
          7 8.5 0 8 8.5 0 7 9 0 8 9 0
          9 8.5 0 10 8.5 0 9 9 0 10 9 0
          11 8.5 0 12 8.5 0 11 9 0 12 9 0
          13 8.5 0 14 8.5 0 13 9 0 14 9 0
          16 9 0 18 9 0 20 9 0 0 10 0
          2 10 0 4 10 0 6 10 0 6 9.5 0
          7 9.5 0 8 9.5 0 7 10 0 8 10 0
          9 9.5 0 10 9.5 0 9 10 0 10 10 0
          11 9.5 0 12 9.5 0 11 10 0 12 10 0
          13 9.5 0 14 9.5 0 13 10 0 14 10 0
          16 10 0 18 10 0 20 10 0
        </DataArray>
      </Points>
      <Cells>
        <DataArray type="Int32" Name="connectivity" NumberOfComponents="1" format="ascii">
          0 1 3 2 1 4 5 3 4 6 7 5
          6 8 9 7 8 10 11 9 10 12 13 11
          12 14 15 13 14 16 17 15 16 18 19 17
          18 20 21 19 2 3 23 22 3 5 24 23
          5 7 25 24 7 9 26 25 9 11 27 26
          11 13 28 27 13 15 29 28 15 17 30 29
          17 19 31 30 19 21 32 31 22 23 34 33
          23 24 35 34 24 25 36 35 25 26 37 36
          26 27 38 37 27 28 39 38 28 29 40 39
          29 30 41 40 30 31 42 41 31 32 43 42
          33 34 45 44 34 35 46 45 35 36 47 46
          36 37 48 47 37 38 49 48 38 39 50 49
          39 40 51 50 40 41 52 51 41 42 53 52
          42 43 54 53 44 45 56 55 45 46 57 56
          46 47 58 57 47 48 59 58 48 49 60 59
          49 50 61 60 50 51 62 61 51 52 63 62
          52 53 64 63 53 54 65 64 55 56 67 66
          56 57 68 67 57 58 69 68 58 70 72 71
          70 59 73 72 72 73 75 74 71 72 74 69
          59 60 76 75 60 61 77 76 61 78 80 79
          78 62 81 80 80 81 83 82 79 80 82 77
          62 63 84 83 63 64 85 84 64 65 86 85
          66 67 88 87 67 68 89 88 68 90 92 91
          90 69 93 92 92 93 95 94 91 92 94 89
          69 74 96 93 74 75 97 96 96 97 99 98
          93 96 98 95 75 100 101 97 100 76 102 101
          101 102 104 103 97 101 103 99 76 105 106 102
          105 77 107 106 106 107 109 108 102 106 108 104
          77 82 110 107 82 83 111 110 110 111 113 112
          107 110 112 109 83 114 115 111 114 84 116 115
          115 116 118 117 111 115 117 113 84 85 119 118
          85 86 120 119 87 88 122 121 88 89 123 122
          89 94 125 124 94 95 126 125 125 126 128 127
          124 125 127 123 95 98 129 126 98 99 130 129
          129 130 132 131 126 129 131 128 99 103 133 130
          103 104 134 133 133 134 136 135 130 133 135 132
          104 108 137 134 108 109 138 137 137 138 140 139
          134 137 139 136 109 112 141 138 112 113 142 141
          141 142 144 143 138 141 143 140 113 117 145 142
          117 118 146 145 145 146 148 147 142 145 147 144
          118 119 149 148 119 120 150 149 121 122 152 151
          122 123 153 152 123 128 154 153 128 131 156 155
          131 132 157 156 156 157 159 158 155 156 158 154
          132 135 160 157 135 136 161 160 160 161 163 162
          157 160 162 159 136 139 164 161 139 140 165 164
          164 165 167 166 161 164 166 163 140 143 168 165
          143 144 169 168 168 169 171 170 165 168 170 167
          144 148 172 171 148 149 173 172 149 150 174 173
          151 152 176 175 152 153 177 176 153 154 178 177
          154 158 180 179 158 159 181 180 180 181 183 182
          179 180 182 178 159 162 184 181 162 163 185 184
          184 185 187 186 181 184 186 183 163 166 188 185
          166 167 189 188 188 189 191 190 185 188 190 187
          167 170 192 189 170 171 193 192 192 193 195 194
          189 192 194 191 171 172 196 195 172 173 197 196
          173 174 198 197
        </DataArray>
        <DataArray type="Int32" Name="offsets" NumberOfComponents="1" format="ascii">
          4 8 12 16 20 24 28 32 36 40 44 48
          52 56 60 64 68 72 76 80 84 88 92 96
          100 104 108 112 116 120 124 128 132 136 140 144
          148 152 156 160 164 168 172 176 180 184 188 192
          196 200 204 208 212 216 220 224 228 232 236 240
          244 248 252 256 260 264 268 272 276 280 284 288
          292 296 300 304 308 312 316 320 324 328 332 336
          340 344 348 352 356 360 364 368 372 376 380 384
          388 392 396 400 404 408 412 416 420 424 428 432
          436 440 444 448 452 456 460 464 468 472 476 480
          484 488 492 496 500 504 508 512 516 520 524 528
          532 536 540 544 548 552 556 560 564 568 572 576
          580 584 588 592 596 600 604 608 612 616 620 624
          628 632 636 640 644 648 652 656 660 664
        </DataArray>
        <DataArray type="UInt8" Name="types" NumberOfComponents="1" format="ascii">
          9 9 9 9 9 9 9 9 9 9 9 9
          9 9 9 9 9 9 9 9 9 9 9 9
          9 9 9 9 9 9 9 9 9 9 9 9
          9 9 9 9 9 9 9 9 9 9 9 9
          9 9 9 9 9 9 9 9 9 9 9 9
          9 9 9 9 9 9 9 9 9 9 9 9
          9 9 9 9 9 9 9 9 9 9 9 9
          9 9 9 9 9 9 9 9 9 9 9 9
          9 9 9 9 9 9 9 9 9 9 9 9
          9 9 9 9 9 9 9 9 9 9 9 9
          9 9 9 9 9 9 9 9 9 9 9 9
          9 9 9 9 9 9 9 9 9 9 9 9
          9 9 9 9 9 9 9 9 9 9 9 9
          9 9 9 9 9 9 9 9 9 9
        </DataArray>
      </Cells>
    </Piece>
  </UnstructuredGrid>
</VTKFile>
