<?xml version="1.0"?>
<VTKFile type="UnstructuredGrid" version="0.1" byte_order="LittleEndian">
  <UnstructuredGrid>
    <Piece NumberOfCells="900" NumberOfPoints="961">
      <CellData Scalars="pressure" Vectors="velocity">
        <DataArray type="Float32" Name="pressure" NumberOfComponents="1" format="ascii">
          0.00870675 0.0161356 0.0240556 0.0312489 0.0373788 0.042448 0.0465014 0.0495995 0.0518078 0.0531922 0.0538173 0.0537447
          0.0530328 0.0517363 0.0499063 0.0475907 0.0448339 0.041678 0.0381631 0.0343286 0.030214 0.0258609 0.0213156 0.0166329
          0.0118836 0.00716671 0.00263673 -0.00143532 -0.00449056 -0.00501885 0.0161356 0.0506421 0.076139 0.0968186 0.114361 0.128943
          0.140651 0.149618 0.156003 0.159981 0.161729 0.16142 0.159221 0.155291 0.149778 0.142822 0.134554 0.125098
          0.114572 0.103093 0.0907787 0.0777522 0.0641517 0.0501412 0.0359319 0.021821 0.00827151 -0.00390309 -0.0130247 -0.0145593
          0.0240556 0.076139 0.122416 0.159581 0.189609 0.214017 0.233459 0.248313 0.258893 0.265499 0.268425 0.267957
          0.264366 0.257914 0.248843 0.237383 0.223749 0.208144 0.190765 0.171803 0.151451 0.129914 0.107421 0.0842433
          0.0607316 0.0373803 0.0149603 -0.00517274 -0.0202232 -0.0226635 0.0312489 0.0968186 0.159581 0.213879 0.258267 0.293836
          0.32183 0.343103 0.358269 0.367828 0.372228 0.371884 0.367185 0.358495 0.346155 0.330484 0.31178 0.290327
          0.266395 0.240249 0.212158 0.182407 0.151311 0.11925 0.0867114 0.054385 0.0233479 -0.00450684 -0.0252825 -0.0286101
          0.0373788 0.114361 0.189609 0.258267 0.316914 0.364736 0.402455 0.431119 0.451651 0.464816 0.471262 0.471567
          0.466254 0.455805 0.440664 0.421243 0.397927 0.371077 0.34104 0.308154 0.272761 0.235223 0.195944 0.155404
          0.11423 0.0733021 0.0339974 -0.00126616 -0.0275416 -0.0319781 0.042448 0.128943 0.214017 0.293836 0.364736 0.424488
          0.472597 0.50963 0.536517 0.554196 0.563516 0.565232 0.56002 0.548492 0.531205 0.508671 0.481365 0.44973
          0.414188 0.375149 0.333029 0.288266 0.241347 0.192857 0.14355 0.0944956 0.0473585 0.00505177 -0.0265315 -0.0326581
          0.0465014 0.140651 0.233459 0.32183 0.402455 0.472597 0.530736 0.576588 0.610663 0.633819 0.646986 0.651057
          0.64685 0.63511 0.616514 0.591678 0.56117 0.525517 0.485218 0.440759 0.392625 0.341329 0.28744 0.231642
          0.174814 0.118201 0.0637368 0.0147787 -0.0220086 -0.0308028 0.0495995 0.149618 0.248313 0.343103 0.431119 0.50963
          0.576588 0.630937 0.672551 0.701926 0.719874 0.727305 0.725123 0.714181 0.695264 0.66909 0.63632 0.597566
          0.553405 0.504395 0.451092 0.394082 0.334013 0.271659 0.20802 0.1445 0.0832697 0.02805 -0.0139648 -0.0267428
          0.0518078 0.156003 0.258893 0.358269 0.451651 0.536517 0.610663 0.672551 0.721452 0.757364 0.780785 0.792487
          0.793355 0.784283 0.76613 0.739698 0.705732 0.664923 0.617922 0.565358 0.507854 0.446066 0.380716 0.312664
          0.243013 0.173307 0.105907 0.0447915 -0.00261243 -0.0208983 0.0531922 0.159981 0.265499 0.367828 0.464816 0.554196
          0.633819 0.701926 0.757364 0.799645 0.828858 0.845502 0.850316 0.844147 0.827864 0.802314 0.7683 0.726577
          0.677863 0.622847 0.562218 0.496692 0.427059 0.354254 0.279468 0.204354 0.131405 0.0647217 0.0116506 -0.0137082
          0.0538173 0.161729 0.268425 0.372228 0.471262 0.563516 0.646986 0.719874 0.780785 0.828858 0.863781 0.885708
          0.895134 0.892758 0.879382 0.855839 0.82295 0.781507 0.732272 0.675986 0.613388 0.545248 0.472412 0.395875
          0.316894 0.237194 0.159325 0.0873686 0.0282882 -0.00558574 0.0537447 0.16142 0.267957 0.371884 0.471567 0.565232
          0.651057 0.727305 0.792487 0.845502 0.885708 0.912917 0.927326 0.929411 0.919829 0.899328 0.868696 0.828722
          0.780183 0.723849 0.660492 0.590921 0.516021 0.436828 0.354639 0.271203 0.189053 0.1121 0.0466755 0.0031017
          0.0530328 0.159221 0.264366 0.367185 0.466254 0.56002 0.64685 0.725123 0.793355 0.850316 0.895134 0.927326
          0.94679 0.953739 0.948622 0.932043 0.904696 0.867318 0.820665 0.765501 0.70261 0.632816 0.557024 0.476286
          0.391905 0.305607 0.219823 0.138162 0.066143 0.0120349 0.0517363 0.155291 0.257914 0.358495 0.455805 0.548492
          0.63511 0.714181 0.784283 0.844147 0.892758 0.929411 0.953739 0.965687 0.965465 0.953483 0.930288 0.896516
          0.852857 0.800033 0.738808 0.669992 0.594484 0.513322 0.42778 0.339506 0.250753 0.164721 0.0860116 0.0209375
          0.0499063 0.149778 0.248843 0.346155 0.440664 0.531205 0.616514 0.695264 0.76613 0.827864 0.879382 0.919829
          0.948622 0.965465 0.970323 0.963385 0.945014 0.915697 0.876012 0.826604 0.768176 0.701495 0.627419 0.546942
          0.461265 0.371911 0.280885 0.190906 0.105618 0.0295674 0.0475907 0.142822 0.237383 0.330484 0.421243 0.508671
          0.591678 0.66909 0.739698 0.802314 0.855839 0.899328 0.932043 0.953483 0.963385 0.961713 0.94862 0.924413
          0.889521 0.844469 0.789864 0.726393 0.654841 0.576118 0.491317 0.401784 0.30923 0.215842 0.124335 0.0377107
          0.0448339 0.134554 0.223749 0.31178 0.397927 0.481365 0.56117 0.63632 0.705732 0.7683 0.82295 0.868696
          0.904696 0.930288 0.945014 0.94862 0.941045 0.922397 0.892928 0.853008 0.803113 0.743816 0.675791 0.599833
          0.516885 0.428082 0.3348 0.238684 0.141578 0.0451769 0.041678 0.125098 0.208144 0.290327 0.371077 0.44973
          0.525517 0.597566 0.664923 0.726577 0.781507 0.828722 0.867318 0.896516 0.915697 0.924413 0.922397 0.909552
          0.885935 0.851738 0.807277 0.752979 0.689377 0.617115 0.536957 0.449795 0.356652 0.25864 0.156817 0.0517963
          0.0381631 0.114572 0.190765 0.266395 0.34104 0.414188 0.485218 0.553405 0.617922 0.677863 0.732272 0.780183
          0.820665 0.852857 0.876012 0.889521 0.892928 0.885935 0.868399 0.840323 0.801841 0.75321 0.694796 0.627069
          0.550585 0.465976 0.373906 0.274987 0.169581 0.0574191 0.0343286 0.103093 0.171803 0.240249 0.308154 0.375149
          0.440759 0.504395 0.565358 0.622847 0.675986 0.723849 0.765501 0.800033 0.826604 0.844469 0.853008 0.851738
          0.840323 0.81857 0.786427 0.743963 0.691362 0.628899 0.556913 0.475765 0.385771 0.287078 0.179454 0.0619142
          0.030214 0.0907787 0.151451 0.212158 0.272761 0.333029 0.392625 0.451092 0.507854 0.562218 0.613388 0.660492
          0.70261 0.738808 0.768176 0.789864 0.803113 0.807277 0.801841 0.786427 0.760792 0.724821 0.678506 0.621924
          0.555189 0.478399 0.391541 0.294347 0.186075 0.0651677 0.0258609 0.0777522 0.129914 0.182407 0.235223 0.288266
          0.341329 0.394082 0.446066 0.496692 0.545248 0.590921 0.632816 0.669992 0.701495 0.726393 0.743816 0.752979
          0.75321 0.743963 0.724821 0.695489 0.655778 0.605569 0.544764 0.473211 0.390599 0.296295 0.189129 0.0670798
          0.0213156 0.0641517 0.107421 0.151311 0.195944 0.241347 0.28744 0.334013 0.380716 0.427059 0.472412 0.516021
          0.557024 0.594484 0.627419 0.654841 0.675791 0.689377 0.694796 0.691362 0.678506 0.655778 0.622824 0.57935
          0.525067 0.459603 0.382385 0.292471 0.18833 0.0675591 0.0166329 0.0501412 0.0842433 0.11925 0.155404 0.192857
          0.231642 0.271659 0.312664 0.354254 0.395875 0.436828 0.476286 0.513322 0.546942 0.576118 0.599833 0.617115
          0.627069 0.628899 0.621924 0.605569 0.57935 0.542833 0.49557 0.437008 0.366361 0.282433 0.183394 0.0665135
          0.0118836 0.0359319 0.0607316 0.0867114 0.11423 0.14355 0.174814 0.20802 0.243013 0.279468 0.316894 0.354639
          0.391905 0.42778 0.461265 0.491317 0.516885 0.536957 0.550585 0.556913 0.555189 0.544764 0.525067 0.49557
          0.455714 0.40482 0.341943 0.265694 0.174001 0.0638353 0.00716671 0.021821 0.0373803 0.054385 0.0733021 0.0944956
          0.118201 0.1445 0.173307 0.204354 0.237194 0.271203 0.305607 0.339506 0.371911 0.401784 0.428082 0.449795
          0.465976 0.475765 0.478399 0.473211 0.459603 0.437008 0.40482 0.362293 0.3084 0.241628 0.159723 0.0593754
          0.00263673 0.00827151 0.0149603 0.0233479 0.0339974 0.0473585 0.0637368 0.0832697 0.105907 0.131405 0.159325 0.189053
          0.219823 0.250753 0.280885 0.30923 0.3348 0.356652 0.373906 0.385771 0.391541 0.390599 0.382385 0.366361
          0.341943 0.3084 0.264706 0.209328 0.139916 0.052897 -0.00143532 -0.00390309 -0.00517274 -0.00450684 -0.00126616 0.00505177
          0.0147787 0.02805 0.0447915 0.0647217 0.0873686 0.1121 0.138162 0.164721 0.190906 0.215842 0.238684 0.25864
          0.274987 0.287078 0.294347 0.296295 0.292471 0.282433 0.265694 0.241628 0.209328 0.167385 0.113516 0.0439778
          -0.00449056 -0.0130247 -0.0202232 -0.0252825 -0.0275416 -0.0265315 -0.0220086 -0.0139648 -0.00261243 0.0116506 0.0282882 0.0466755
          0.066143 0.0860116 0.105618 0.124335 0.141578 0.156817 0.169581 0.179454 0.186075 0.189129 0.18833 0.183394
          0.174001 0.159723 0.139916 0.113516 0.0786407 0.0317622 -0.00501885 -0.0145593 -0.0226635 -0.0286101 -0.0319781 -0.0326581
          -0.0308028 -0.0267428 -0.0208983 -0.0137082 -0.00558574 0.0031017 0.0120349 0.0209375 0.0295674 0.0377107 0.0451769 0.0517963
          0.0574191 0.0619142 0.0651677 0.0670798 0.0675591 0.0665135 0.0638353 0.0593754 0.052897 0.0439778 0.0317622 0.0141772
        </DataArray>
        <DataArray type="Float32" Name="velocity" NumberOfComponents="3" format="ascii">
          -0.141745 -0.141745 0 -0.0157127 -0.69446 0 -0.00672745 -1.26836 0 -0.00327952 -1.74964 0
          -0.00174476 -2.14695 0 -0.000981044 -2.4706 0 -0.000563383 -2.72768 0 -0.000319926 -2.92397 0
          -0.000171643 -3.0646 0 -7.86111e-05 -3.15423 0 -1.91669e-05 -3.19717 0 1.91256e-05 -3.19741 0
          4.37296e-05 -3.15866 0 5.92871e-05 -3.08434 0 6.8769e-05 -2.97763 0 7.41208e-05 -2.84145 0
          7.66384e-05 -2.67855 0 7.71957e-05 -2.49149 0 7.63846e-05 -2.28271 0 7.46041e-05 -2.05458 0
          7.21165e-05 -1.80951 0 6.90814e-05 -1.55001 0 6.55735e-05 -1.27885 0 6.15827e-05 -0.999347 0
          5.69924e-05 -0.715737 0 5.15118e-05 -0.433976 0 4.44957e-05 -0.163325 0 3.43933e-05 0.0799521 0
          1.64306e-05 0.262334 0 -4.11079e-05 0.29326 0 -0.69446 -0.0157127 0 -0.360037 -0.360037 0
          -0.149372 -0.92153 0 -0.0744475 -1.45431 0 -0.0414566 -1.90178 0 -0.0240231 -2.2652 0
          -0.0140532 -2.55356 0 -0.00806579 -2.77496 0 -0.00434428 -2.9362 0 -0.00197591 -3.04313 0
          -0.000446876 -3.10088 0 0.000545699 -3.11404 0 0.0011872 -3.08673 0 0.00159466 -3.02268 0
          0.00184387 -2.92529 0 0.0019849 -2.79767 0 0.00205135 -2.64267 0 0.00206599 -2.46295 0
          0.00204435 -2.26105 0 0.00199691 -2.03938 0 0.00193058 -1.80038 0 0.00184957 -1.54659 0
          0.00175586 -1.28083 0 0.00164913 -1.00639 0 0.00152625 -0.72754 0 0.0013794 -0.450224 0
          0.00119121 -0.183699 0 0.000920005 0.0557953 0 0.000437488 0.234812 0 -0.00106742 0.263434 0
          -1.26836 -0.00672745 0 -0.92153 -0.149372 0 -0.535414 -0.535414 0 -0.294567 -1.03062 0
          -0.168924 -1.5042 0 -0.100272 -1.90979 0 -0.0598633 -2.24034 0 -0.0349167 -2.49997 0
          -0.0190532 -2.69501 0 -0.00877273 -2.83175 0 -0.00203765 -2.91592 0 0.00238842 -2.95269 0
          0.00528048 -2.94667 0 0.00713728 -2.902 0 0.00828681 -2.82239 0 0.00894857 -2.71121 0
          0.00927137 -2.57151 0 0.009357 -2.40611 0 0.00927527 -2.21764 0 0.00907371 -2.00862 0
          0.00878381 -1.78157 0 0.00842486 -1.53906 0 0.00800591 -1.28393 0 0.00752565 -1.01951 0
          0.00696967 -0.750064 0 0.00630197 -0.481522 0 0.00544266 -0.223103 0 0.00419976 0.00905948 0
          0.00198514 0.181914 0 -0.00458778 0.208657 0 -1.74964 -0.00327952 0 -1.45431 -0.0744475 0
          -1.03062 -0.294567 0 -0.658199 -0.658199 0 -0.404748 -1.08154 0 -0.248169 -1.48924 0
          -0.151448 -1.84515 0 -0.0900445 -2.13834 0 -0.0501147 -2.36863 0 -0.0237362 -2.5397 0
          -0.00616289 -2.65634 0 0.00556148 -2.72345 0 0.013334 -2.7457 0 0.0184008 -2.72738 0
          0.0215957 -2.67241 0 0.023485 -2.58432 0 0.0244577 -2.46635 0 0.0247826 -2.32145 0
          0.0246458 -2.15237 0 0.0241753 -1.96173 0 0.0234564 -1.75208 0 0.022542 -1.52606 0
          0.0214571 -1.28653 0 0.0201988 -1.03684 0 0.0187286 -0.781212 0 0.0169488 -0.525541 0
          0.0146429 -0.278923 0 0.0112909 -0.0571717 0 0.00532333 0.107824 0 -0.0112221 0.137331 0
          -2.14695 -0.00174476 0 -1.90178 -0.0414566 0 -1.5042 -0.168924 0 -1.08154 -0.404748 0
          -0.727496 -0.727496 0 -0.470956 -1.08518 0 -0.297128 -1.43067 0 -0.181239 -1.73658 0
          -0.103612 -1.99139 0 -0.0511908 -2.19235 0 -0.0156115 -2.34088 0 0.00853545 -2.44013 0
          0.0248166 -2.4939 0 0.0356268 -2.50607 0 0.0425987 -2.48038 0 0.0468591 -2.42033 0
          0.0491926 -2.32916 0 0.0501486 -2.20987 0 0.0501114 -2.06525 0 0.0493478 -1.89795 0
          0.0480378 -1.71057 0 0.046294 -1.50577 0 0.0441713 -1.28639 0 0.0416658 -1.05574 0
          0.0386983 -0.818013 0 0.0350666 -0.578958 0 0.0303197 -0.347405 0 0.0233822 -0.138467 0
          0.0111007 0.018455 0 -0.020303 0.0592277 0 -2.4706 -0.000981044 0 -2.2652 -0.0240231 0
          -1.90979 -0.100272 0 -1.48924 -0.248169 0 -1.08518 -0.470956 0 -0.749236 -0.749236 0
          -0.495359 -1.04918 0 -0.313291 -1.33938 0 -0.185597 -1.5991 0 -0.096671 -1.81765 0
          -0.0348908 -1.99105 0 0.00788923 -2.11911 0 0.0372971 -2.20358 0 0.0572318 -2.24714 0
          0.0704143 -2.25281 0 0.0787585 -2.22365 0 0.0836182 -2.16267 0 0.0859543 -2.07272 0
          0.0864476 -1.9565 0 0.0855762 -1.81661 0 0.0836662 -1.65559 0 0.0809248 -1.47605 0
          0.077456 -1.28079 0 0.0732581 -1.07304 0 0.0681947 -0.856816 0 0.0619098 -0.637655 0
          0.0536083 -0.423873 0 0.0414188 -0.229308 0 0.0200976 -0.0790956 0 -0.0298257 -0.0166834 0
          -2.72768 -0.000563383 0 -2.55356 -0.0140532 0 -2.24034 -0.0598633 0 -1.84515 -0.151448 0
          -1.43067 -0.297128 0 -1.04918 -0.495359 0 -0.731057 -0.731057 0 -0.483616 -0.981179 0
          -0.299361 -1.22375 0 -0.165475 -1.44286 0 -0.0695031 -1.62912 0 -0.00135176 -1.7781 0
          0.0465724 -1.88854 0 0.0798162 -1.96109 0 0.102392 -1.99744 0 0.117194 -1.99977 0
          0.126313 -1.97048 0 0.131258 -1.91202 0 0.133112 -1.82682 0 0.132647 -1.71727 0
          0.130396 -1.58575 0 0.126704 -1.43474 0 0.121748 -1.26687 0 0.115538 -1.08521 0
          0.107866 -0.893535 0 0.0981736 -0.696966 0 0.0852204 -0.502999 0 0.0661419 -0.323471 0
          0.0333921 -0.177332 0 -0.0366794 -0.0837433 0 -2.92397 -0.000319926 0 -2.77496 -0.00806579 0
          -2.49997 -0.0349167 0 -2.13834 -0.0900445 0 -1.73658 -0.181239 0 -1.33938 -0.313291 0
          -0.981179 -0.483616 0 -0.680862 -0.680862 0 -0.442429 -0.888714 0 -0.260136 -1.0912 0
          -0.124211 -1.2759 0 -0.0246005 -1.43473 0 0.0473706 -1.56317 0 0.0986036 -1.65934 0
          0.134378 -1.72305 0 0.158654 -1.75515 0 0.174373 -1.75705 0 0.183706 -1.73053 0
          0.18824 -1.6775 0 0.189122 -1.59996 0 0.187159 -1.5 0 0.182878 -1.37981 0
          0.176565 -1.24179 0 0.168252 -1.08869 0 0.157652 -0.923922 0 0.143974 -0.751976 0
          0.125458 -0.579154 0 0.0981624 -0.414512 0 0.0524549 -0.269219 0 -0.0370723 -0.138149 0
          -3.0646 -0.000171643 0 -2.9362 -0.00434428 0 -2.69501 -0.0190532 0 -2.36863 -0.0501147 0
          -1.99139 -0.103612 0 -1.5991 -0.185597 0 -1.22375 -0.299361 0 -0.888714 -0.442429 0
          -0.606269 -0.606269 0 -0.378585 -0.778948 0 -0.201096 -0.948469 0 -0.0661315 -1.10497 0
          0.0345167 -1.24146 0 0.108272 -1.35357 0 0.161305 -1.43903 0 0.198518 -1.49702 0
          0.223701 -1.52768 0 0.239736 -1.53181 0 0.248783 -1.51056 0 0.252432 -1.46536 0
          0.25182 -1.39781 0 0.247708 -1.3097 0 0.240524 -1.20303 0 0.230343 -1.08013 0
          0.216805 -0.943857 0 0.198873 -0.797844 0 0.174258 -0.646799 0 0.138029 -0.496304 0
          0.0791098 -0.348926 0 -0.0270346 -0.178664 0 -3.15423 -7.86111e-05 0 -3.04313 -0.00197591 0
          -2.83175 -0.00877273 0 -2.5397 -0.0237362 0 -2.19235 -0.0511908 0 -1.81765 -0.096671 0
          -1.44286 -0.165475 0 -1.0912 -0.260136 0 -0.778948 -0.378585 0 -0.514347 -0.514347 0
          -0.298509 -0.658434 0 -0.127707 -0.801569 0 0.00420819 -0.935748 0 0.104002 -1.05489 0
          0.17801 -1.15485 0 0.231682 -1.23309 0 0.269478 -1.28833 0 0.294932 -1.32015 0
          0.310776 -1.32878 0 0.319074 -1.31485 0 0.321332 -1.27933 0 0.318586 -1.22343 0
          0.311433 -1.14861 0 0.300022 -1.05664 0 0.283942 -0.949634 0 0.261934 -0.830127 0
          0.231256 -0.700883 0 0.186251 -0.56356 0 0.115349 -0.412289 0 -0.00290018 -0.205855 0
          -3.19717 -1.91669e-05 0 -3.10088 -0.000446876 0 -2.91592 -0.00203765 0 -2.65634 -0.00616289 0
          -2.34088 -0.0156115 0 -1.99105 -0.0348908 0 -1.62912 -0.0695031 0 -1.2759 -0.124211 0
          -0.948469 -0.201096 0 -0.658434 -0.298509 0 -0.411456 -0.411456 0 -0.208027 -0.53297 0
          -0.0450588 -0.655677 0 0.0824492 -0.772928 0 0.180101 -0.879372 0 0.253283 -0.971061 0
          0.306753 -1.04531 0 0.344493 -1.10046 0 0.369711 -1.13566 0 0.384912 -1.15061 0
          0.391972 -1.14548 0 0.392214 -1.12077 0 0.386437 -1.07728 0 0.374891 -1.01602 0
          0.35715 -0.938223 0 0.331808 -0.845098 0 0.295826 -0.737223 0 0.243246 -0.612233 0
          0.163047 -0.456929 0 0.0382911 -0.221259 0 -3.19741 1.91256e-05 0 -3.11404 0.000545699 0
          -2.95269 0.00238842 0 -2.72345 0.00556148 0 -2.44013 0.00853545 0 -2.11911 0.00788923 0
          -1.7781 -0.00135176 0 -1.43473 -0.0246005 0 -1.10497 -0.0661315 0 -0.801569 -0.127707 0
          -0.53297 -0.208027 0 -0.303146 -0.303146 0 -0.11223 -0.407508 0 0.0423494 -0.515077 0
          0.16468 -0.620198 0 0.259403 -0.718077 0 0.331067 -0.804938 0 0.383767 -0.877983 0
          0.420981 -0.935261 0 0.445539 -0.975504 0 0.459632 -0.997977 0 0.464857 -1.00236 0
          0.462218 -0.988629 0 0.452095 -0.95695 0 0.434107 -0.907488 0 0.406808 -0.840004 0
          0.367099 -0.752793 0 0.309227 -0.639742 0 0.223637 -0.482093 0 0.0985 -0.226723 0
          -3.15866 4.37296e-05 0 -3.08673 0.0011872 0 -2.94667 0.00528048 0 -2.7457 0.013334 0
          -2.4939 0.0248166 0 -2.20358 0.0372971 0 -1.88854 0.0465724 0 -1.56317 0.0473706 0
          -1.24146 0.0345167 0 -0.935748 0.00420819 0 -0.655677 -0.0450588 0 -0.407508 -0.11223 0
          -0.194094 -0.194094 0 -0.0153911 -0.286081 0 0.130723 -0.383101 0 0.24758 -0.480215 0
          0.338995 -0.573041 0 0.408762 -0.657931 0 0.460334 -0.731984 0 0.49667 -0.792979 0
          0.520161 -0.839263 0 0.532613 -0.869624 0 0.53522 -0.883151 0 0.528511 -0.879046 0
          0.512215 -0.856333 0 0.484987 -0.813249 0 0.443943 -0.745896 0 0.384031 -0.645014 0
          0.297828 -0.488314 0 0.1785 -0.224016 0 -3.08434 5.92871e-05 0 -3.02268 0.00159466 0
          -2.902 0.00713728 0 -2.72738 0.0184008 0 -2.50607 0.0356268 0 -2.24714 0.0572318 0
          -1.96109 0.0798162 0 -1.65934 0.0986036 0 -1.35357 0.108272 0 -1.05489 0.104002 0
          -0.772928 0.0824492 0 -0.515077 0.0423494 0 -0.286081 -0.0153911 0 -0.088062 -0.088062 0
          0.0790769 -0.17177 0 0.217042 -0.262088 0 0.328505 -0.354584 0 0.416553 -0.445164 0
          0.484281 -0.530248 0 0.534523 -0.606812 0 0.569696 -0.672346 0 0.591707 -0.724758 0
          0.60189 -0.762222 0 0.60093 -0.782943 0 0.588727 -0.784773 0 0.564188 -0.764471 0
          0.524915 -0.7162 0 0.466965 -0.628351 0 0.385387 -0.477041 0 0.277789 -0.214675 0
          -2.97763 6.8769e-05 0 -2.92529 0.00184387 0 -2.82239 0.00828681 0 -2.67241 0.0215957 0
          -2.48038 0.0425987 0 -2.25281 0.0704143 0 -1.99744 0.102392 0 -1.72305 0.134378 0
          -1.43903 0.161305 0 -1.15485 0.17801 0 -0.879372 0.180101 0 -0.620198 0.16468 0
          -0.383101 0.130723 0 -0.17177 0.0790769 0 0.0121305 0.0121305 0 0.16865 -0.0666769 0
          0.299093 -0.153368 0 0.405537 -0.243853 0 0.490403 -0.334215 0 0.556136 -0.420871 0
          0.604966 -0.500612 0 0.638761 -0.570556 0 0.658912 -0.628008 0 0.666239 -0.670211 0
          0.660867 -0.693902 0 0.642087 -0.694509 0 0.608209 -0.664634 0 0.556667 -0.591187 0
          0.485035 -0.450288 0 0.39458 -0.199984 0 -2.84145 7.41208e-05 0 -2.79767 0.0019849 0
          -2.71121 0.00894857 0 -2.58432 0.023485 0 -2.42033 0.0468591 0 -2.22365 0.0787585 0
          -1.99977 0.117194 0 -1.75515 0.158654 0 -1.49702 0.198518 0 -1.23309 0.231682 0
          -0.971061 0.253283 0 -0.718077 0.259403 0 -0.480215 0.24758 0 -0.262088 0.217042 0
          -0.0666769 0.16865 0 0.104611 0.104611 0 0.251698 0.0280775 0 0.375492 -0.0572612 0
          0.477516 -0.147521 0 0.559583 -0.238858 0 0.62353 -0.327593 0 0.671021 -0.410221 0
          0.7034 -0.483305 0 0.721577 -0.543237 0 0.725929 -0.585779 0 0.716221 -0.605265 0
          0.691622 -0.593189 0 0.65105 -0.535798 0 0.594429 -0.410374 0 0.525865 -0.181029 0
          -2.67855 7.66384e-05 0 -2.64267 0.00205135 0 -2.57151 0.00927137 0 -2.46635 0.0244577 0
          -2.32916 0.0491926 0 -2.16267 0.0836182 0 -1.97048 0.126313 0 -1.75705 0.174373 0
          -1.52768 0.223701 0 -1.28833 0.269478 0 -1.04531 0.306753 0 -0.804938 0.331067 0
          -0.573041 0.338995 0 -0.354584 0.328505 0 -0.153368 0.299093 0 0.0280775 0.251698 0
          0.18845 0.18845 0 0.327482 0.11234 0 0.445687 0.0268971 0 0.54408 -0.0640872 0
          0.623923 -0.156733 0 0.686521 -0.247141 0 0.733054 -0.331328 0 0.764461 -0.40502 0
          0.781358 -0.46322 0 0.784027 -0.499474 0 0.77255 -0.504641 0 0.7473 -0.464999 0
          0.710236 -0.359718 0 0.667537 -0.15875 0 -2.49149 7.71957e-05 0 -2.46295 0.00206599 0
          -2.40611 0.009357 0 -2.32145 0.0247826 0 -2.20987 0.0501486 0 -2.07272 0.0859543 0
          -1.91202 0.131258 0 -1.73053 0.183706 0 -1.53181 0.239736 0 -1.32015 0.294932 0
          -1.10046 0.344493 0 -0.877983 0.383767 0 -0.657931 0.408762 0 -0.445164 0.416553 0
          -0.243853 0.405537 0 -0.0572612 0.375492 0 0.11234 0.327482 0 0.263635 0.263635 0
          0.39613 0.186876 0 0.509963 0.100668 0 0.605704 0.00881065 0 0.684168 -0.0846635 0
          0.746261 -0.175475 0 0.792871 -0.258929 0 0.824817 -0.329547 0 0.842883 -0.380429 0
          0.84803 -0.402252 0 0.841952 -0.381867 0 0.828259 -0.300704 0 0.814552 -0.13398 0
          -2.28271 7.63846e-05 0 -2.26105 0.00204435 0 -2.21764 0.00927527 0 -2.15237 0.0246458 0
          -2.06525 0.0501114 0 -1.9565 0.0864476 0 -1.82682 0.133112 0 -1.6775 0.18824 0
          -1.51056 0.248783 0 -1.32878 0.310776 0 -1.13566 0.369711 0 -0.935261 0.420981 0
          -0.731984 0.460334 0 -0.530248 0.484281 0 -0.334215 0.490403 0 -0.147521 0.477516 0
          0.0268971 0.445687 0 0.186876 0.39613 0 0.331015 0.331015 0 0.458588 0.253259 0
          0.56942 0.166326 0 0.663754 0.0741108 0 0.742131 -0.0190859 0 0.80531 -0.108437 0
          0.854248 -0.188292 0 0.89017 -0.251666 0 0.91482 -0.289462 0 0.931006 -0.289495 0
          0.943609 -0.235572 0 0.961125 -0.107459 0 -2.05458 7.46041e-05 0 -2.03938 0.00199691 0
          -2.00862 0.00907371 0 -1.96173 0.0241753 0 -1.89795 0.0493478 0 -1.81661 0.0855762 0
          -1.71727 0.132647 0 -1.59996 0.189122 0 -1.46536 0.252432 0 -1.31485 0.319074 0
          -1.15061 0.384912 0 -0.975504 0.445539 0 -0.792979 0.49667 0 -0.606812 0.534523 0
          -0.420871 0.556136 0 -0.238858 0.559583 0 -0.0640872 0.54408 0 0.100668 0.509963 0
          0.253259 0.458588 0 0.392176 0.392176 0 0.516515 0.313646 0 0.625915 0.226502 0
          0.720497 0.134786 0 0.800822 0.0431538 0 0.867908 -0.042901 0 0.923334 -0.116657 0
          0.969492 -0.169601 0 1.01008 -0.190778 0 1.05089 -0.166326 0 1.10092 -0.0798344 0
          -1.80951 7.21165e-05 0 -1.80038 0.00193058 0 -1.78157 0.00878381 0 -1.75208 0.0234564 0
          -1.71057 0.0480378 0 -1.65559 0.0836662 0 -1.58575 0.130396 0 -1.5 0.187159 0
          -1.39781 0.25182 0 -1.27933 0.321332 0 -1.14548 0.391972 0 -0.997977 0.459632 0
          -0.839263 0.520161 0 -0.672346 0.569696 0 -0.500612 0.604966 0 -0.327593 0.62353 0
          -0.156733 0.623923 0 0.00881065 0.605704 0 0.166326 0.56942 0 0.313646 0.516515 0
          0.449206 0.449206 0 0.572058 0.370385 0 0.681883 0.283573 0 0.778997 0.192957 0
          0.864414 0.103551 0 0.939966 0.0214802 0 1.00855 -0.0456263 0 1.07454 -0.0882219 0
          1.14437 -0.09465 0 1.22726 -0.0516423 0 -1.55001 6.90814e-05 0 -1.54659 0.00184957 0
          -1.53906 0.00842486 0 -1.52606 0.022542 0 -1.50577 0.046294 0 -1.47605 0.0809248 0
          -1.43474 0.126704 0 -1.37981 0.182878 0 -1.3097 0.247708 0 -1.22343 0.318586 0
          -1.12077 0.392214 0 -1.00236 0.464857 0 -0.869624 0.532613 0 -0.724758 0.591707 0
          -0.570556 0.638761 0 -0.410221 0.671021 0 -0.247141 0.686521 0 -0.0846635 0.684168 0
          0.0741108 0.663754 0 0.226502 0.625915 0 0.370385 0.572058 0 0.504287 0.504287 0
          0.627463 0.425363 0 0.73997 0.338729 0 0.842767 0.248618 0 0.937858 0.160253 0
          1.02852 0.0801201 0 1.11965 0.0162305 0 1.21812 -0.0218091 0 1.3332 -0.0232768 0
          -1.27885 6.55735e-05 0 -1.28083 0.00175586 0 -1.28393 0.00800591 0 -1.28653 0.0214571 0
          -1.28639 0.0441713 0 -1.28079 0.077456 0 -1.26687 0.121748 0 -1.24179 0.176565 0
          -1.20303 0.240524 0 -1.14861 0.311433 0 -1.07728 0.386437 0 -0.988629 0.462218 0
          -0.883151 0.53522 0 -0.762222 0.60189 0 -0.628008 0.658912 0 -0.483305 0.7034 0
          -0.331328 0.733054 0 -0.175475 0.746261 0 -0.0190859 0.742131 0 0.134786 0.720497 0
          0.283573 0.681883 0 0.425363 0.627463 0 0.55904 0.55904 0 0.684419 0.479067 0
          0.802384 0.39072 0 0.91506 0.298042 0 1.02603 0.206141 0 1.14061 0.121383 0
          1.26605 0.0514586 0 1.41167 0.00504998 0 -0.999347 6.15827e-05 0 -1.00639 0.00164913 0
          -1.01951 0.00752565 0 -1.03684 0.0201988 0 -1.05574 0.0416658 0 -1.07304 0.0732581 0
          -1.08521 0.115538 0 -1.08869 0.168252 0 -1.08013 0.230343 0 -1.05664 0.300022 0
          -1.01602 0.374891 0 -0.95695 0.452095 0 -0.879046 0.528511 0 -0.782943 0.60093 0
          -0.670211 0.666239 0 -0.543237 0.721577 0 -0.40502 0.764461 0 -0.258929 0.792871 0
          -0.108437 0.80531 0 0.0431538 0.800822 0 0.192957 0.778997 0 0.338729 0.73997 0
          0.479067 0.684419 0 0.613592 0.613592 0 0.743129 0.529362 0 0.869917 0.43434 0
          0.997826 0.332024 0 1.13258 0.226998 0 1.2819 0.125097 0 1.45531 0.03337 0
          -0.715737 5.69924e-05 0 -0.72754 0.00152625 0 -0.750064 0.00696967 0 -0.781212 0.0187286 0
          -0.818013 0.0386983 0 -0.856816 0.0681947 0 -0.893535 0.107866 0 -0.923922 0.157652 0
          -0.943857 0.216805 0 -0.949634 0.283942 0 -0.938223 0.35715 0 -0.907488 0.434107 0
          -0.856333 0.512215 0 -0.784773 0.588727 0 -0.693902 0.660867 0 -0.585779 0.725929 0
          -0.46322 0.781358 0 -0.329547 0.824817 0 -0.188292 0.854248 0 -0.042901 0.867908 0
          0.103551 0.864414 0 0.248618 0.842767 0 0.39072 0.802384 0 0.529362 0.743129 0
          0.665363 0.665363 0 0.801094 0.570015 0 0.940749 0.458727 0 1.09059 0.33408 0
          1.25902 0.199972 0 1.45625 0.0620638 0 -0.433976 5.15118e-05 0 -0.450224 0.0013794 0
          -0.481522 0.00630197 0 -0.525541 0.0169488 0 -0.578958 0.0350666 0 -0.637655 0.0619098 0
          -0.696966 0.0981736 0 -0.751976 0.143974 0 -0.797844 0.198873 0 -0.830127 0.261934 0
          -0.845098 0.331808 0 -0.840004 0.406808 0 -0.813249 0.484987 0 -0.764471 0.564188 0
          -0.694509 0.642087 0 -0.605265 0.716221 0 -0.499474 0.784027 0 -0.380429 0.842883 0
          -0.251666 0.89017 0 -0.116657 0.923334 0 0.0214802 0.939966 0 0.160253 0.937858 0
          0.298042 0.91506 0 0.43434 0.869917 0 0.570015 0.801094 0 0.707613 0.707613 0
          0.85171 0.588952 0 1.00929 0.445316 0 1.18996 0.278286 0 1.40548 0.0920677 0
          -0.163325 4.44957e-05 0 -0.183699 0.00119121 0 -0.223103 0.00544266 0 -0.278923 0.0146429 0
          -0.347405 0.0303197 0 -0.423873 0.0536083 0 -0.502999 0.0852204 0 -0.579154 0.125458 0
          -0.646799 0.174258 0 -0.700883 0.231256 0 -0.737223 0.295826 0 -0.752793 0.367099 0
          -0.745896 0.443943 0 -0.7162 0.524915 0 -0.664634 0.608209 0 -0.593189 0.691622 0
          -0.504641 0.77255 0 -0.402252 0.84803 0 -0.289462 0.91482 0 -0.169601 0.969492 0
          -0.0456263 1.00855 0 0.0801201 1.02852 0 0.206141 1.02603 0 0.332024 0.997826 0
          0.458727 0.940749 0 0.588952 0.85171 0 0.727657 0.727657 0 0.882738 0.565787 0
          1.0657 0.364412 0 1.2916 0.125362 0 0.0799521 3.43933e-05 0 0.0557953 0.000920005 0
          0.00905948 0.00419976 0 -0.0571717 0.0112909 0 -0.138467 0.0233822 0 -0.229308 0.0414188 0
          -0.323471 0.0661419 0 -0.414512 0.0981624 0 -0.496304 0.138029 0 -0.56356 0.186251 0
          -0.612233 0.243246 0 -0.639742 0.309227 0 -0.645014 0.384031 0 -0.628351 0.466965 0
          -0.591187 0.556667 0 -0.535798 0.65105 0 -0.464999 0.7473 0 -0.381867 0.841952 0
          -0.289495 0.931006 0 -0.190778 1.01008 0 -0.0882219 1.07454 0 0.0162305 1.11965 0
          0.121383 1.14061 0 0.226998 1.13258 0 0.33408 1.09059 0 0.445316 1.00929 0
          0.565787 0.882738 0 0.704171 0.704171 0 0.87458 0.466634 0 1.09841 0.166358 0
          0.262334 1.64306e-05 0 0.234812 0.000437488 0 0.181914 0.00198514 0 0.107824 0.00532333 0
          0.018455 0.0111007 0 -0.0790956 0.0200976 0 -0.177332 0.0333921 0 -0.269219 0.0524549 0
          -0.348926 0.0791098 0 -0.412289 0.115349 0 -0.456929 0.163047 0 -0.482093 0.223637 0
          -0.488314 0.297828 0 -0.477041 0.385387 0 -0.450288 0.485035 0 -0.410374 0.594429 0
          -0.359718 0.710236 0 -0.300704 0.828259 0 -0.235572 0.943609 0 -0.166326 1.05089 0
          -0.09465 1.14437 0 -0.0218091 1.21812 0 0.0514586 1.26605 0 0.125097 1.2819 0
          0.199972 1.25902 0 0.278286 1.18996 0 0.364412 1.0657 0 0.466634 0.87458 0
          0.601032 0.601032 0 0.799479 0.226663 0 0.29326 -4.11079e-05 0 0.263434 -0.00106742 0