<?xml version="1.0"?>
<VTKFile type="UnstructuredGrid" version="0.1" byte_order="LittleEndian">
  <UnstructuredGrid>
    <Piece NumberOfCells="900" NumberOfPoints="961">
      <CellData Scalars="pressure" Vectors="velocity">
        <DataArray type="Float32" Name="pressure" NumberOfComponents="1" format="ascii">
          0.0113022 0.017979 0.0252333 0.0319255 0.0377271 0.0425472 0.046407 0.0493554 0.05145 0.0527506 0.0533169 0.0532064
          0.0524742 0.051172 0.0493487 0.04705 0.0443187 0.0411956 0.0377199 0.0339298 0.0298644 0.0255647 0.0210768 0.0164551
          0.0117698 0.00711907 0.00265502 -0.00135759 -0.0043786 -0.00497003 0.017979 0.0432526 0.0677368 0.089878 0.108587 0.123927
          0.136141 0.145468 0.152133 0.156348 0.158309 0.158204 0.156206 0.152476 0.147165 0.140415 0.132355 0.12311
          0.112799 0.101537 0.0894431 0.0766403 0.0632669 0.0494868 0.0355107 0.0216332 0.00831039 -0.00366339 -0.0126679 -0.014391
          0.0252333 0.0677368 0.106567 0.142504 0.173962 0.20019 0.221234 0.237409 0.24908 0.256608 0.260334 0.260577
          0.257634 0.251782 0.243275 0.23235 0.21923 0.204122 0.187225 0.168733 0.148843 0.127762 0.105719 0.0829872
          0.0599179 0.0370015 0.0149976 -0.00477113 -0.0196075 -0.0223603 0.0319255 0.089878 0.142504 0.190708 0.233707 0.270413
          0.300384 0.323734 0.340829 0.352118 0.35806 0.359099 0.355652 0.348105 0.336821 0.322133 0.304352 0.283772
          0.26067 0.235321 0.207997 0.178988 0.148615 0.11726 0.0854107 0.0537534 0.0233486 -0.00395707 -0.0244082 -0.0281674
          0.0377271 0.108587 0.173962 0.233707 0.287288 0.333764 0.372424 0.403079 0.425946 0.441458 0.450133 0.452508
          0.449103 0.440411 0.426894 0.408981 0.387071 0.36154 0.332748 0.301042 0.266774 0.230315 0.192073 0.152538
          0.112335 0.0723395 0.0339085 -0.000602145 -0.02643 -0.0314026 0.0425472 0.123927 0.20019 0.270413 0.333764 0.389319
          0.436268 0.474181 0.503061 0.523228 0.535182 0.539503 0.536784 0.527606 0.51252 0.492045 0.466664 0.436834
          0.40299 0.365557 0.324961 0.281649 0.236119 0.188963 0.140938 0.0931048 0.047104 0.00577107 -0.0252289 -0.0319655
          0.046407 0.136141 0.221234 0.300384 0.372424 0.436268 0.490982 0.535948 0.570946 0.596122 0.611886 0.618794
          0.617471 0.608555 0.592669 0.570408 0.542333 0.508976 0.470845 0.428435 0.382244 0.332796 0.280672 0.226561
          0.171346 0.116264 0.0632161 0.0154669 -0.0205872 -0.030013 0.0493554 0.145468 0.237409 0.323734 0.403079 0.474181
          0.535948 0.587573 0.628619 0.659027 0.679051 0.689166 0.689971 0.68212 0.66628 0.643103 0.613215 0.577212
          0.535668 0.489145 0.438207 0.383449 0.325529 0.265229 0.203548 0.14188 0.0823582 0.0285941 -0.0125196 -0.0258761
          0.05145 0.152133 0.24908 0.340829 0.425946 0.503061 0.570946 0.628619 0.675434 0.711109 0.735709 0.749564
          0.753192 0.747216 0.732307 0.709146 0.678402 0.640722 0.596735 0.54706 0.492323 0.433179 0.370358 0.304724
          0.23738 0.169853 0.104461 0.0450565 -0.00125496 -0.0199735 0.0527506 0.156348 0.256608 0.352118 0.441458 0.523228
          0.596122 0.659027 0.711109 0.751877 0.781178 0.799163 0.806215 0.802874 0.789769 0.767575 0.736974 0.698646
          0.653258 0.601473 0.543964 0.481442 0.414697 0.344661 0.272522 0.19991 0.129266 0.0645581 0.0128007 -0.0127423
          0.0533169 0.158309 0.260334 0.35806 0.450133 0.535182 0.611886 0.679051 0.735709 0.781178 0.815098 0.837418
          0.848347 0.848293 0.837802 0.817496 0.788042 0.750118 0.70441 0.651606 0.592414 0.527587 0.457957 0.384511
          0.308495 0.231606 0.156335 0.0866231 0.0291124 -0.00459529 0.0532064 0.158204 0.260577 0.359099 0.452508 0.539503
          0.618794 0.689166 0.749564 0.799163 0.837418 0.864074 0.87915 0.882889 0.875706 0.858135 0.830783 0.794298
          0.749354 0.696645 0.636892 0.570869 0.499437 0.423613 0.344674 0.264335 0.185062 0.110627 0.047065 0.00409918
          0.0524742 0.156206 0.257634 0.355652 0.449103 0.536784 0.617471 0.689971 0.753192 0.806215 0.848347 0.87915
          0.89845 0.906307 0.902977 0.888864 0.864481 0.830409 0.78728 0.735763 0.676571 0.610474 0.538341 0.461193
          0.380302 0.297353 0.214706 0.135837 0.0660059 0.0130203 0.051172 0.152476 0.251782 0.348105 0.440411 0.527606
          0.608555 0.68212 0.747216 0.802874 0.848293 0.882889 0.906307 0.918422 0.919314 0.909232 0.888559 0.857774
          0.817435 0.768157 0.710612 0.645547 0.573806 0.496385 0.414517 0.329801 0.244419 0.161449 0.0852785 0.0218899
          0.0493487 0.147165 0.243275 0.336821 0.426894 0.51252 0.592669 0.66628 0.732307 0.789769 0.837802 0.875706
          0.902977 0.919314 0.924619 0.918967 0.902589 0.875834 0.839151 0.79307 0.738195 0.675216 0.604926 0.528264
          0.446381 0.360745 0.273292 0.186631 0.104246 0.0304658 0.04705 0.140415 0.23235 0.322133 0.408981 0.492045
          0.570408 0.643103 0.709146 0.767575 0.817496 0.858135 0.888864 0.909232 0.918967 0.917971 0.906305 0.884166
          0.851867 0.809825 0.758545 0.69863 0.630791 0.555876 0.474918 0.389208 0.300386 0.210553 0.122308 0.0385348
          0.0443187 0.132355 0.21923 0.304352 0.387071 0.466664 0.542333 0.613215 0.678402 0.736974 0.788042 0.830783
          0.864481 0.888559 0.902589 0.906305 0.899595 0.882489 0.855146 0.817842 0.770959 0.714983 0.650514 0.578276
          0.49915 0.414212 0.324776 0.232418 0.138911 0.0459091 0.0411956 0.12311 0.204122 0.283772 0.36154 0.436834
          0.508976 0.577212 0.640722 0.698646 0.750118 0.794298 0.830409 0.857774 0.875834 0.884166 0.882489 0.870662
          0.848678 0.816656 0.774829 0.723544 0.663262 0.594557 0.518128 0.434812 0.345574 0.251481 0.153554 0.0524231
          0.0377199 0.112799 0.187225 0.26067 0.332748 0.40299 0.470845 0.535668 0.596735 0.653258 0.70441 0.749354
          0.78728 0.817435 0.839151 0.851867 0.855146 0.848678 0.832287 0.805921 0.769654 0.723675 0.668283 0.603881
          0.530967 0.45012 0.361958 0.267061 0.16579 0.057932 0.0339298 0.101537 0.168733 0.235321 0.301042 0.365557
          0.428435 0.489145 0.54706 0.601473 0.651606 0.696645 0.735763 0.768157 0.79307 0.809825 0.817842 0.816656
          0.805921 0.785419 0.755053 0.714844 0.664919 0.605496 0.536862 0.45933 0.373183 0.278553 0.175228 0.0623105
          0.0298644 0.0894431 0.148843 0.207997 0.266774 0.324961 0.382244 0.438207 0.492323 0.543964 0.592414 0.636892
          0.676571 0.710612 0.738195 0.758545 0.770959 0.774829 0.769654 0.755053 0.730763 0.696635 0.652621 0.598751
          0.535098 0.461722 0.378585 0.285421 0.181527 0.0654504 0.0255647 0.0766403 0.127762 0.178988 0.230315 0.281649
          0.332796 0.383449 0.433179 0.481442 0.527587 0.570869 0.610474 0.645547 0.675216 0.69863 0.714983 0.723544
          0.723675 0.714844 0.696635 0.668739 0.630939 0.583087 0.525052 0.456657 0.377577 0.287193 0.184388 0.0672571
          0.0210768 0.0632669 0.105719 0.148615 0.192073 0.236119 0.280672 0.325529 0.370358 0.414697 0.457957 0.499437
          0.538341 0.573806 0.604926 0.630791 0.650514 0.663262 0.668283 0.664919 0.652621 0.630939 0.59951 0.558022
          0.506168 0.443559 0.369621 0.283436 0.183537 0.0676438 0.0164551 0.0494868 0.0829872 0.11726 0.152538 0.188963
          0.226561 0.265229 0.304724 0.344661 0.384511 0.423613 0.461193 0.496385 0.528264 0.555876 0.578276 0.594557
          0.603881 0.605496 0.598751 0.583087 0.558022 0.523119 0.477921 0.421873 0.354194 0.273723 0.1787 0.0665226
          0.0117698 0.0355107 0.0599179 0.0854107 0.112335 0.140938 0.171346 0.203548 0.23738 0.272522 0.308495 0.344674
          0.380302 0.414517 0.446381 0.474918 0.49915 0.518128 0.530967 0.536862 0.535098 0.525052 0.506168 0.477921
          0.439758 0.391002 0.330725 0.257577 0.169564 0.0637891 0.00711907 0.0216332 0.0370015 0.0537534 0.0723395 0.0931048
          0.116264 0.14188 0.169853 0.19991 0.231606 0.264335 0.297353 0.329801 0.360745 0.389208 0.414212 0.434812
          0.45012 0.45933 0.461722 0.456657 0.443559 0.421873 0.391002 0.350211 0.298495 0.234386 0.155711 0.0592973
          0.00265502 0.00831039 0.0149976 0.0233486 0.0339085 0.047104 0.0632161 0.0823582 0.104461 0.129266 0.156335 0.185062
          0.214706 0.244419 0.273292 0.300386 0.324776 0.345574 0.361958 0.373183 0.378585 0.377577 0.369621 0.354194
          0.330725 0.298495 0.256505 0.203266 0.136513 0.0528141 -0.00135759 -0.00366339 -0.00477113 -0.00395707 -0.000602145 0.00577107
          0.0154669 0.0285941 0.0450565 0.0645581 0.0866231 0.110627 0.135837 0.161449 0.186631 0.210553 0.232418 0.251481
          0.267061 0.278553 0.285421 0.287193 0.283436 0.273723 0.257577 0.234386 0.203266 0.16285 0.110934 0.0439233
          -0.0043786 -0.0126679 -0.0196075 -0.0244082 -0.02643 -0.0252289 -0.0205872 -0.0125196 -0.00125496 0.0128007 0.0291124 0.047065
          0.0660059 0.0852785 0.104246 0.122308 0.138911 0.153554 0.16579 0.175228 0.181527 0.184388 0.183537 0.1787
          0.169564 0.155711 0.136513 0.110934 0.0771566 0.0317855 -0.00497003 -0.014391 -0.0223603 -0.0281674 -0.0314026 -0.0319655
          -0.030013 -0.0258761 -0.0199735 -0.0127423 -0.00459529 0.00409918 0.0130203 0.0218899 0.0304658 0.0385348 0.0459091 0.0524231
          0.057932 0.0623105 0.0654504 0.0672571 0.0676438 0.0665226 0.0637891 0.0592973 0.0528141 0.0439233 0.0317855 0.0143849
        </DataArray>
        <DataArray type="Float32" Name="velocity" NumberOfComponents="3" format="ascii">
          -0.21961 -0.21961 0 -0.0609574 -0.826627 0 -0.0147425 -1.34092 0 -0.00560152 -1.79051 0
          -0.00262236 -2.16795 0 -0.00135642 -2.47664 0 -0.000734825 -2.72211 0 -0.000399249 -2.90942 0
          -0.000206346 -3.04322 0 -9.07684e-05 -3.12781 0 -1.97231e-05 -3.16721 0 2.44855e-05 -3.16518 0
          5.19564e-05 -3.1252 0 6.87138e-05 -3.05053 0 7.84789e-05 -2.94421 0 8.36145e-05 -2.80905 0
          8.5653e-05 -2.64767 0 8.56026e-05 -2.46257 0 8.41317e-05 -2.25613 0 8.16814e-05 -2.03067 0
          7.8536e-05 -1.78855 0 7.48646e-05 -1.53225 0 7.07434e-05 -1.26453 0 6.61582e-05 -0.988681 0
          6.09834e-05 -0.708911 0 5.49136e-05 -0.431118 0 4.7281e-05 -0.164423 0 3.65004e-05 0.0752898 0
          1.77591e-05 0.255619 0 -4.0231e-05 0.290332 0 -0.826627 -0.0609574 0 -0.524825 -0.524825 0
          -0.271546 -1.04131 0 -0.131461 -1.51881 0 -0.0665572 -1.9325 0 -0.0356938 -2.27544 0
          -0.0197578 -2.54996 0 -0.0109196 -2.76138 0 -0.00575477 -2.91533 0 -0.00262507 -3.01698 0
          -0.000684213 -3.07108 0 0.00053308 -3.08189 0 0.00129577 -3.05331 0 0.00176577 -2.9889 0
          0.00204379 -2.89188 0 0.00219412 -2.76526 0 0.00225864 -2.61178 0 0.00226501 -2.43403 0
          0.00223164 -2.23446 0 0.00217074 -2.01545 0 0.00209021 -1.77941 0 0.0019948 -1.52882 0
          0.00188671 -1.2665 0 0.00176569 -0.995719 0 0.00162845 -0.720707 0 0.00146689 -0.447358 0
          0.00126311 -0.184787 0 0.000974596 0.0511425 0 0.000472221 0.228108 0 -0.00104235 0.260505 0
          -1.34092 -0.0147425 0 -1.04131 -0.271546 0 -0.697805 -0.697805 0 -0.428945 -1.14568 0
          -0.252203 -1.56738 0 -0.14684 -1.93773 0 -0.0853183 -2.24612 0 -0.0487724 -2.49146 0
          -0.0264967 -2.67694 0 -0.0126097 -2.80718 0 -0.0038152 -2.88702 0 0.00179622 -2.92105 0
          0.00536834 -2.91354 0 0.00760753 -2.86837 0 0.00896162 -2.78906 0 0.00972075 -2.67883 0
          0.0100762 -2.54063 0 0.0101554 -2.37717 0 0.0100441 -2.19103 0 0.00979958 -1.98467 0
          0.00945913 -1.76056 0 0.00904557 -1.52125 0 0.0085698 -1.26956 0 0.00803128 -1.0088 0
          0.00741542 -0.743193 0 0.00668521 -0.478616 0 0.00575868 -0.224149 0 0.00444049 0.00445607 0
          0.00213971 0.175267 0 -0.00446862 0.205717 0 -1.79051 -0.00560152 0 -1.51881 -0.131461 0
          -1.14568 -0.428945 0 -0.801272 -0.801272 0 -0.530027 -1.18559 0 -0.337112 -1.54934 0
          -0.208307 -1.87197 0 -0.124581 -2.14272 0 -0.0704053 -2.35832 0 -0.0352022 -2.5198 0
          -0.0122119 -2.63024 0 0.00282589 -2.6935 0 0.0126138 -2.71357 0 0.0188902 -2.69434 0
          0.0227911 -2.6394 0 0.0250699 -2.55211 0 0.0262322 -2.43553 0 0.0266206 -2.29251 0
          0.026468 -2.12572 0 0.0259321 -1.93771 0 0.025117 -1.73099 0 0.0240873 -1.50817 0
          0.0228748 -1.27207 0 0.0214801 -1.02603 0 0.0198653 -0.774236 0 0.0179311 -0.522523 0
          0.0154562 -0.279844 0 0.0119129 -0.0616326 0 0.00572805 0.101337 0 -0.0108928 0.13434 0
          -2.16795 -0.00262236 0 -1.9325 -0.0665572 0 -1.56738 -0.252203 0 -1.18559 -0.530027 0
          -0.849346 -0.849346 0 -0.581104 -1.17553 0 -0.381522 -1.48508 0 -0.239777 -1.76155 0
          -0.141731 -1.99516 0 -0.0747847 -2.18172 0 -0.0293753 -2.32076 0 0.00125451 -2.414 0
          0.02174 -2.46418 0 0.0352338 -2.47451 0 0.0438823 -2.44827 0 0.0491543 -2.38862 0
          0.0520606 -2.29859 0 0.0532997 -2.18102 0 0.0533548 -2.03858 0 0.0525578 -1.87385 0
          0.0511314 -1.68936 0 0.0492161 -1.48772 0 0.0468839 -1.27175 0 0.0441405 -1.04474 0
          0.0409105 -0.810825 0 0.0369898 -0.575709 0 0.0319199 -0.348067 0 0.024613 -0.142627 0
          0.0119181 0.0122986 0 -0.0196094 0.0561061 0 -2.47664 -0.00135642 0 -2.27544 -0.0356938 0
          -1.93773 -0.14684 0 -1.54934 -0.337112 0 -1.17553 -0.581104 0 -0.851285 -0.851285 0
          -0.589405 -1.12565 0 -0.388781 -1.38671 0 -0.240769 -1.62125 0 -0.134292 -1.8207 0
          -0.0589698 -1.98061 0 -0.0063615 -2.09961 0 0.0299219 -2.17831 0 0.0545428 -2.21851 0
          0.0708445 -2.22257 0 0.0812074 -2.1931 0 0.0873206 -2.13277 0 0.0903814 -2.04421 0
          0.0912352 -1.92994 0 0.0904731 -1.79246 0 0.0884991 -1.63423 0 0.0855725 -1.45779 0
          0.0818314 -1.26589 0 0.0772946 -1.06172 0 0.0718354 -0.849279 0 0.0650979 -0.634013 0
          0.0562779 -0.424085 0 0.0434895 -0.232948 0 0.0215133 -0.0847031 0 -0.0285867 -0.0200535 0
          -2.72211 -0.000734825 0 -2.54996 -0.0197578 0 -2.24612 -0.0853183 0 -1.87197 -0.208307 0
          -1.48508 -0.381522 0 -1.12565 -0.589405 0 -0.815526 -0.815526 0 -0.562419 -1.04472 0
          -0.364525 -1.26364 0 -0.214748 -1.46162 0 -0.104106 -1.63119 0 -0.0239037 -1.76796 0
          0.0332711 -1.87002 0 0.0733112 -1.93719 0 0.100719 -1.97043 0 0.118856 -1.97135 0
          0.1302 -1.94193 0 0.13656 -1.8843 0 0.139245 -1.80066 0 0.139189 -1.69325 0
          0.137044 -1.56432 0 0.133237 -1.41625 0 0.128001 -1.25164 0 0.121383 -1.07348 0
          0.113194 -0.885503 0 0.102881 -0.692746 0 0.0891947 -0.502538 0 0.0692626 -0.326333 0
          0.0356066 -0.182157 0 -0.0346993 -0.0874844 0 -2.90942 -0.000399249 0 -2.76138 -0.0109196 0
          -2.49146 -0.0487724 0 -2.14272 -0.124581 0 -1.76155 -0.239777 0 -1.38671 -0.388781 0
          -1.04472 -0.562419 0 -0.750066 -0.750066 0 -0.507504 -0.940711 0 -0.314989 -1.12397 0
          -0.166588 -1.29111 0 -0.0548594 -1.43563 0 0.0275711 -1.55333 0 0.0872089 -1.64196 0
          0.129416 -1.70078 0 0.158433 -1.73006 0 0.177528 -1.73077 0 0.189171 -1.70427 0
          0.195202 -1.65221 0 0.196968 -1.57637 0 0.195425 -1.47867 0 0.191215 -1.36118 0
          0.184705 -1.22622 0 0.17598 -1.07647 0 0.164785 -0.915265 0 0.150343 -0.746996 0
          0.130894 -0.577788 0 0.102503 -0.41633 0 0.0556716 -0.273057 0 -0.0341546 -0.142344 0
          -3.04322 -0.000206346 0 -2.91533 -0.00575477 0 -2.67694 -0.0264967 0 -2.35832 -0.0704053 0
          -1.99516 -0.141731 0 -1.62125 -0.240769 0 -1.26364 -0.364525 0 -0.940711 -0.507504 0
          -0.662395 -0.662395 0 -0.431628 -0.820901 0 -0.246338 -0.974774 0 -0.101506 -1.11676 0
          0.00911566 -1.24116 0 0.0918307 -1.34401 0 0.152341 -1.42285 0 0.195476 -1.4765 0
          0.22516 -1.5047 0 0.244483 -1.50784 0 0.255826 -1.48677 0 0.260979 -1.44265 0
          0.261246 -1.37689 0 0.257523 -1.29111 0 0.250334 -1.18721 0 0.239828 -1.06742 0
          0.225691 -0.934496 0 0.206911 -0.791956 0 0.181215 -0.644324 0 0.143705 -0.496855 0
          0.0835155 -0.351638 0 -0.0229988 -0.183316 0 -3.12781 -9.07684e-05 0 -3.01698 -0.00262507 0
          -2.80718 -0.0126097 0 -2.5198 -0.0352022 0 -2.18172 -0.0747847 0 -1.8207 -0.134292 0
          -1.46162 -0.214748 0 -1.12397 -0.314989 0 -0.820901 -0.431628 0 -0.559382 -0.559382 0
          -0.341194 -0.691806 0 -0.164343 -0.822205 0 -0.0245554 -0.944452 0 0.083455 -1.05351 0
          0.165089 -1.14559 0 0.225327 -1.21814 0 0.268477 -1.26963 0 0.298103 -1.29936 0
          0.317059 -1.30723 0 0.327561 -1.29361 0 0.331265 -1.25926 0 0.329338 -1.20519 0
          0.322487 -1.13274 0 0.310945 -1.04353 0 0.294358 -0.939568 0 0.271507 -0.823254 0
          0.239684 -0.697166 0 0.193308 -0.562702 0 0.121088 -0.413821 0 0.00239587 -0.210875 0
          -3.16721 -1.97231e-05 0 -3.07108 -0.000684213 0 -2.88702 -0.0038152 0 -2.63024 -0.0122119 0
          -2.32076 -0.0293753 0 -1.98061 -0.0589698 0 -1.63119 -0.104106 0 -1.29111 -0.166588 0
          -0.974774 -0.246338 0 -0.691806 -0.341194 0 -0.447178 -0.447178 0 -0.241926 -0.55913 0
          -0.0741976 -0.671491 0 0.0596485 -0.778988 0 0.164091 -0.877085 0 0.243748 -0.96218 0
          0.302939 -1.03162 0 0.345456 -1.08361 0 0.374473 -1.11707 0 0.39255 -1.13148 0
          0.401659 -1.12679 0 0.403228 -1.10331 0 0.398155 -1.06165 0 0.386772 -1.00271 0
          0.368722 -0.92755 0 0.342649 -0.837259 0 0.305573 -0.732233 0 0.251654 -0.609937 0
          0.17019 -0.457315 0 0.0449263 -0.226475 0 -3.16518 2.44855e-05 0 -3.08189 0.00053308 0
          -2.92105 0.00179622 0 -2.6935 0.00282589 0 -2.414 0.00125451 0 -2.09961 -0.0063615 0
          -1.76796 -0.0239037 0 -1.43563 -0.0548594 0 -1.11676 -0.101506 0 -0.822205 -0.164343 0
          -0.55913 -0.241926 0 -0.331128 -0.331128 0 -0.138775 -0.427695 0 0.0195985 -0.526896 0
          0.147077 -0.624092 0 0.247437 -0.715127 0 0.324595 -0.796534 0 0.382254 -0.865584 0
          0.423687 -0.920244 0 0.45165 -0.959095 0 0.468345 -0.981225 0 0.475415 -0.986131 0
          0.473934 -0.973624 0 0.464351 -0.943711 0 0.446348 -0.89641 0 0.418543 -0.831332 0
          0.377915 -0.746623 0 0.318862 -0.636107 0 0.232158 -0.481438 0 0.106466 -0.231916 0
          -3.1252 5.19564e-05 0 -3.05331 0.00129577 0 -2.91354 0.00536834 0 -2.71357 0.0126138 0
          -2.46418 0.02174 0 -2.17831 0.0299219 0 -1.87002 0.0332711 0 -1.55333 0.0275711 0
          -1.24116 0.00911566 0 -0.944452 -0.0245554 0 -0.671491 -0.0741976 0 -0.427695 -0.138775 0
          -0.215719 -0.215719 0 -0.0358681 -0.301406 0 0.113307 -0.391697 0 0.234379 -0.482414 0
          0.330493 -0.56968 0 0.404922 -0.65011 0 0.460773 -0.720886 0 0.500802 -0.77975 0
          0.527304 -0.824942 0 0.542057 -0.855112 0 0.546274 -0.869197 0 0.540522 -0.866252 0
          0.524581 -0.845151 0 0.49717 -0.803991 0 0.455497 -0.738765 0 0.394679 -0.640255 0
          0.307586 -0.48678 0 0.187682 -0.228957 0 -3.05053 6.87138e-05 0 -2.9889 0.00176577 0
          -2.86837 0.00760753 0 -2.69434 0.0188902 0 -2.47451 0.0352338 0 -2.21851 0.0545428 0
          -1.93719 0.0733112 0 -1.64196 0.0872089 0 -1.34401 0.0918307 0 -1.05351 0.083455 0
          -0.778988 0.0596485 0 -0.526896 0.0195985 0 -0.301406 -0.0358681 0 -0.104535 -0.104535 0
          0.0635319 -0.183206 0 0.203989 -0.268156 0 0.31893 -0.355529 0 0.410909 -0.44163 0
          0.482593 -0.523101 0 0.536513 -0.597005 0 0.574892 -0.660819 0 0.599527 -0.712378 0
          0.611709 -0.749744 0 0.612114 -0.770997 0 0.600672 -0.773858 0 0.576341 -0.754969 0
          0.536817 -0.708432 0 0.478317 -0.622773 0 0.396125 -0.474823 0 0.287961 -0.219156 0
          -2.94421 7.84789e-05 0 -2.89188 0.00204379 0 -2.78906 0.00896162 0 -2.6394 0.0227911 0
          -2.44827 0.0438823 0 -2.22257 0.0708445 0 -1.97043 0.100719 0 -1.70078 0.129416 0
          -1.42285 0.152341 0 -1.14559 0.165089 0 -0.877085 0.164091 0 -0.624092 0.147077 0
          -0.391697 0.113307 0 -0.183206 0.0635319 0 -0.000233262 -0.000233262 0 0.157043 -0.0750671 0
          0.289534 -0.157517 0 0.398862 -0.243931 0 0.487027 -0.330709 0 0.556115 -0.414457 0
          0.608095 -0.492048 0 0.644653 -0.560601 0 0.667071 -0.617369 0 0.676112 -0.659508 0
          0.671895 -0.683659 0 0.653739 -0.685168 0 0.620034 -0.656627 0 0.568343 -0.58515 0
          0.496392 -0.447597 0 0.405412 -0.203847 0 -2.80905 8.36145e-05 0 -2.76526 0.00219412 0
          -2.67883 0.00972075 0 -2.55211 0.0250699 0 -2.38862 0.0491543 0 -2.1931 0.0812074 0
          -1.97135 0.118856 0 -1.73006 0.158433 0 -1.4765 0.195476 0 -1.21814 0.225327 0
          -0.96218 0.243748 0 -0.715127 0.247437 0 -0.482414 0.234379 0 -0.268156 0.203989 0
          -0.0750671 0.157043 0 0.0954635 0.0954635 0 0.243174 0.0220163 0 0.36866 -0.0600041 0
          0.473089 -0.147052 0 0.55793 -0.235537 0 0.624725 -0.321935 0 0.674909 -0.402817 0
          0.709664 -0.474757 0 0.729797 -0.534114 0 0.735637 -0.576597 0 0.726946 -0.596504 0
          0.702939 -0.585366 0 0.662619 -0.529679 0 0.60597 -0.407419 0 0.536944 -0.184167 0
          -2.64767 8.5653e-05 0 -2.61178 0.00225864 0 -2.54063 0.0100762 0 -2.43553 0.0262322 0
          -2.29859 0.0520606 0 -2.13277 0.0873206 0 -1.94193 0.1302 0 -1.73077 0.177528 0
          -1.5047 0.22516 0 -1.26963 0.268477 0 -1.03162 0.302939 0 -0.796534 0.324595 0
          -0.56968 0.330493 0 -0.355529 0.31893 0 -0.157517 0.289534 0 0.0220163 0.243174 0
          0.181766 0.181766 0 0.321314 0.108011 0 0.440927 0.0251382 0 0.541333 -0.0633261 0
          0.623518 -0.153703 0 0.688539 -0.242225 0 0.737384 -0.324979 0 0.770849 -0.397712 0
          0.789464 -0.455428 0 0.793472 -0.491679 0 0.782956 -0.497406 0 0.758316 -0.459151 0
          0.721485 -0.356696 0 0.678402 -0.161109 0 -2.46257 8.56026e-05 0 -2.43403 0.00226501 0
          -2.37717 0.0101554 0 -2.29251 0.0266206 0 -2.18102 0.0532997 0 -2.04421 0.0903814 0
          -1.8843 0.13656 0 -1.70427 0.189171 0 -1.50784 0.244483 0 -1.29936 0.298103 0
          -1.08361 0.345456 0 -0.865584 0.382254 0 -0.65011 0.404922 0 -0.44163 0.410909 0
          -0.243931 0.398862 0 -0.0600041 0.36866 0 0.108011 0.321314 0 0.258791 0.258791 0
          0.391715 0.183795 0 0.506726 0.0995586 0 0.604165 0.00967316 0 0.684618 -0.0819924 0
          0.748792 -0.171272 0 0.79741 -0.253543 0 0.831175 -0.323371 0 0.850792 -0.373908 0
          0.857179 -0.395946 0 0.851993 -0.376592 0 0.838742 -0.297785 0 0.824733 -0.13555 0
          -2.25613 8.41317e-05 0 -2.23446 0.00223164 0 -2.19103 0.0100441 0 -2.12572 0.026468 0
          -2.03858 0.0533548 0 -1.92994 0.0912352 0 -1.80066 0.139245 0 -1.65221 0.195202 0
          -1.48677 0.255826 0 -1.30723 0.317059 0 -1.11707 0.374473 0 -0.920244 0.423687 0
          -0.720886 0.460773 0 -0.523101 0.482593 0 -0.330709 0.487027 0 -0.147052 0.473089 0
          0.0251382 0.440927 0 0.183795 0.391715 0 0.327504 0.327504 0 0.455439 0.25104 0
          0.567266 0.165606 0 0.663044 0.0749302 0 0.743132 -0.0168232 0 0.808124 -0.104932 0
          0.858838 -0.183829 0 0.896393 -0.246616 0 0.922446 -0.284328 0 0.939709 -0.285016 0
          0.9529 -0.232887 0 0.970186 -0.108263 0 -2.03067 8.16814e-05 0 -2.01545 0.00217074 0
          -1.98467 0.00979958 0 -1.93771 0.0259321 0 -1.87385 0.0525578 0 -1.79246 0.0904731 0
          -1.69325 0.139189 0 -1.57637 0.196968 0 -1.44265 0.260979 0 -1.29361 0.327561 0
          -1.13148 0.39255 0 -0.959095 0.45165 0 -0.77975 0.500802 0 -0.597005 0.536513 0
          -0.414457 0.556115 0 -0.235537 0.55793 0 -0.0633261 0.541333 0 0.0995586 0.506726 0
          0.25104 0.455439 0 0.389596 0.389596 0 0.514242 0.311986 0 0.624493 0.225967 0
          0.720322 0.135445 0 0.802142 0.0449556 0 0.87083 -0.0401128 0 0.927836 -0.113146 0
          0.975431 -0.165768 0 1.01717 -0.187228 0 1.05865 -0.163962 0 1.10851 -0.0799157 0
          -1.78855 7.8536e-05 0 -1.77941 0.00209021 0 -1.76056 0.00945913 0 -1.73099 0.025117 0
          -1.68936 0.0511314 0 -1.63423 0.0884991 0 -1.56432 0.137044 0 -1.47867 0.195425 0
          -1.37689 0.261246 0 -1.25926 0.331265 0 -1.12679 0.401659 0 -0.981225 0.468345 0
          -0.824942 0.527304 0 -0.660819 0.574892 0 -0.492048 0.608095 0 -0.321935 0.624725 0
          -0.153703 0.623518 0 0.00967316 0.604165 0 0.165606 0.567266 0 0.311986 0.514242 0
          0.447238 0.447238 0 0.570356 0.369041 0 0.680918 0.283054 0 0.779124 0.19335 0
          0.865857 0.104831 0 0.942814 0.0235133 0 1.01275 -0.0431043 0 1.07986 -0.0856395 0
          1.15036 -0.0926432 0 1.2331 -0.0510512 0 -1.53225 7.48646e-05 0 -1.52882 0.0019948 0
          -1.52125 0.00904557 0 -1.50817 0.0240873 0 -1.48772 0.0492161 0 -1.45779 0.0855725 0
          -1.41625 0.133237 0 -1.36118 0.191215 0 -1.29111 0.257523 0 -1.20519 0.329338 0
          -1.10331 0.403228 0 -0.986131 0.475415 0 -0.855112 0.542057 0 -0.712378 0.599527 0
          -0.560601 0.644653 0 -0.402817 0.674909 0 -0.242225 0.688539 0 -0.0819924 0.684618 0
          0.0749302 0.663044 0 0.225967 0.624493 0 0.369041 0.570356 0 0.502678 0.502678 0
          0.626085 0.424139 0 0.739239 0.338089 0 0.842989 0.248662 0 0.939213 0.160984 0
          1.03104 0.0814309 0 1.12317 0.0178946 0 1.22224 -0.0201475 0 1.33719 -0.0220636 0
          -1.26453 7.07434e-05 0 -1.2665 0.00188671 0 -1.26956 0.0085698 0 -1.27207 0.0228748 0
          -1.27175 0.0468839 0 -1.26589 0.0818314 0 -1.25164 0.128001 0 -1.22622 0.184705 0
          -1.18721 0.250334 0 -1.13274 0.322487 0 -1.06165 0.398155 0 -0.973624 0.473934 0
          -0.869197 0.546274 0 -0.749744 0.611709 0 -0.617369 0.667071 0 -0.474757 0.709664 0
          -0.324979 0.737384 0 -0.171272 0.748792 0 -0.0168232 0.743132 0 0.135445 0.720322 0
          0.283054 0.680918 0 0.424139 0.626085 0 0.557585 0.557585 0 0.683166 0.477811 0
          0.801687 0.38987 0 0.915165 0.297731 0 1.02704 0.206428 0 1.14243 0.122252 0
          1.26835 0.0528319 0 1.41382 0.00684348 0 -0.988681 6.61582e-05 0 -0.995719 0.00176569 0
          -1.0088 0.00803128 0 -1.02603 0.0214801 0 -1.04474 0.0441405 0 -1.06172 0.0772946 0
          -1.07348 0.121383 0 -1.07647 0.17598 0 -1.06742 0.239828 0 -1.04353 0.310945 0
          -1.00271 0.386772 0 -0.943711 0.464351 0 -0.866252 0.540522 0 -0.770997 0.612114 0
          -0.659508 0.676112 0 -0.534114 0.729797 0 -0.397712 0.770849 0 -0.253543 0.79741 0
          -0.104932 0.808124 0 0.0449556 0.802142 0 0.19335 0.779124 0 0.338089 0.739239 0
          0.477811 0.683166 0 0.612135 0.612135 0 0.741841 0.527988 0 0.86908 0.433299 0
          0.997595 0.331532 0 1.13294 0.227247 0 1.28258 0.126274 0 1.45579 0.035717 0
          -0.708911 6.09834e-05 0 -0.720707 0.00162845 0 -0.743193 0.00741542 0 -0.774236 0.0198653 0
          -0.810825 0.0409105 0 -0.849279 0.0718354 0 -0.885503 0.113194 0 -0.915265 0.164785 0
          -0.934496 0.225691 0 -0.939568 0.294358 0 -0.92755 0.368722 0 -0.89641 0.446348 0
          -0.845151 0.524581 0 -0.773858 0.600672 0 -0.683659 0.671895 0 -0.576597 0.735637 0
          -0.455428 0.789464 0 -0.323371 0.831175 0 -0.183829 0.858838 0 -0.0401128 0.87083 0
          0.104831 0.865857 0 0.248662 0.842989 0 0.38987 0.801687 0 0.527988 0.741841 0
          0.66382 0.66382 0 0.799678 0.568564 0 0.939648 0.457725 0 1.08983 0.33391 0
          1.25843 0.201068 0 1.4554 0.0649586 0 -0.431118 5.49136e-05 0 -0.447358 0.00146689 0
          -0.478616 0.00668521 0 -0.522523 0.0179311 0 -0.575709 0.0369898 0 -0.634013 0.0650979 0
          -0.692746 0.102881 0 -0.746996 0.150343 0 -0.791956 0.206911 0 -0.823254 0.271507 0
          -0.837259 0.342649 0 -0.831332 0.418543 0 -0.803991 0.49717 0 -0.754969 0.576341 0
          -0.685168 0.653739 0 -0.596504 0.726946 0 -0.491679 0.793472 0 -0.373908 0.850792 0
          -0.246616 0.896393 0 -0.113146 0.927836 0 0.0235133 0.942814 0 0.160984 0.939213 0
          0.297731 0.915165 0 0.433299 0.86908 0 0.568564 0.799678 0 0.706035 0.706035 0
          0.850205 0.587689 0 1.00792 0.444924 0 1.1886 0.279427 0 1.40377 0.0955338 0
          -0.164423 4.7281e-05 0 -0.184787 0.00126311 0 -0.224149 0.00575868 0 -0.279844 0.0154562 0
          -0.348067 0.0319199 0 -0.424085 0.0562779 0 -0.502538 0.0891947 0 -0.577788 0.130894 0
          -0.644324 0.181215 0 -0.697166 0.239684 0 -0.732233 0.305573 0 -0.746623 0.377915 0
          -0.738765 0.455497 0 -0.708432 0.536817 0 -0.656627 0.620034 0 -0.585366 0.702939 0
          -0.497406 0.782956 0 -0.395946 0.857179 0 -0.284328 0.922446 0 -0.165768 0.975431 0
          -0.0431043 1.01275 0 0.0814309 1.03104 0 0.206428 1.02704 0 0.331532 0.997595 0
          0.457725 0.939648 0 0.587689 0.850205 0 0.726322 0.726322 0 0.881404 0.56533 0
          1.06426 0.365709 0 1.28972 0.129465 0 0.0752898 3.65004e-05 0 0.0511425 0.000974596 0
          0.00445607 0.00444049 0 -0.0616326 0.0119129 0 -0.142627 0.024613 0 -0.232948 0.0434895 0
          -0.326333 0.0692626 0 -0.41633 0.102503 0 -0.496855 0.143705 0 -0.562702 0.193308 0
          -0.609937 0.251654 0 -0.636107 0.318862 0 -0.640255 0.394679 0 -0.622773 0.478317 0
          -0.58515 0.568343 0 -0.529679 0.662619 0 -0.459151 0.758316 0 -0.376592 0.851993 0
          -0.285016 0.939709 0 -0.187228 1.01717 0 -0.0856395 1.07986 0 0.0178946 1.12317 0
          0.122252 1.14243 0 0.227247 1.13294 0 0.33391 1.08983 0 0.444924 1.00792 0
          0.56533 0.881404 0 0.703714 0.703714 0 0.874009 0.468149 0 1.09731 0.171219 0
          0.255619 1.77591e-05 0 0.228108 0.000472221 0 0.175267 0.00213971 0 0.101337 0.00572805 0
          0.0122986 0.0119181 0 -0.0847031 0.0215133 0 -0.182157 0.0356066 0 -0.273057 0.0556716 0
          -0.351638 0.0835155 0 -0.413821 0.121088 0 -0.457315 0.17019 0 -0.481438 0.232158 0
          -0.48678 0.307586 0 -0.474823 0.396125 0 -0.447597 0.496392 0 -0.407419 0.60597 0
          -0.356696 0.721485 0 -0.297785 0.838742 0 -0.232887 0.9529 0 -0.163962 1.05865 0
          -0.0926432 1.15036 0 -0.0201475 1.22224 0 0.0528319 1.26835 0 0.126274 1.28258 0
          0.201068 1.25843 0 0.279427 1.1886 0 0.365709 1.06426 0 0.468149 0.874009 0