<?xml version="1.0"?>
<VTKFile type="UnstructuredGrid" version="0.1" byte_order="LittleEndian">
  <UnstructuredGrid>
    <Piece NumberOfCells="100" NumberOfPoints="121">
      <CellData Scalars="wetting potential" Vectors="wetting-velocity">
        <DataArray type="Float32" Name="wetting potential" NumberOfComponents="1" format="ascii">
          100190 100475 100713 100933 101130 101286 101635 102803 101028 100201 100214 100486
          100718 100938 101141 101276 101422 101465 100756 100194 100279 100508 100726 100948
          101169 101267 101328 101192 100625 100174 100360 100530 100732 100959 101228 101266
          101264 101047 100525 100149 100291 101520 102348 101908 101355 101276 101224 100941
          100440 100126 100192 102371 103772 102836 101430 101282 101201 100818 100361 100106
          100132 100477 100975 103688 103933 103824 102940 100586 100291 100091 100115 100353
          100600 104755 106057 106040 104726 100440 100247 100082 100110 100321 100519 100856
          102121 102094 100774 100395 100234 100079 100108 100317 100517 100786 101198 101162
          100696 100408 100235 100079
        </DataArray>
        <DataArray type="Float32" Name="wetting pressure" NumberOfComponents="1" format="ascii">
          193385 193670 193908 194128 194325 194481 194830 195998 194223 193396 183599 183871
          184103 184323 184526 184661 184807 184850 184141 183579 173854 174083 174301 174523
          174744 174842 174903 174767 174200 173749 164125 164295 164497 164724 164993 165031
          165029 164812 164290 163914 154246 155475 156303 155863 155310 155231 155179 154896
          154394 154081 144337 146516 147917 146981 145575 145427 145346 144963 144506 144251
          134467 134812 135310 138023 138268 138159 137275 134921 134626 134426 124640 124878
          125125 129280 130582 130565 129251 124965 124772 124607 114825 115036 115234 115571
          116836 116809 115489 115110 114949 114794 105013 105222 105422 105691 106103 106067
          105601 105313 105140 104984
        </DataArray>
        <DataArray type="Float32" Name="nonwetting pressure" NumberOfComponents="1" format="ascii">
          193885 194170 194408 194628 194825 194981 195384 196720 194805 193900 184099 184371
          184603 184823 185026 185161 185312 185442 184661 184079 174358 174583 174801 175023
          175244 175342 175405 175347 174718 174249 164657 164795 164997 165224 165493 165531
          165532 165393 164811 164414 154797 160477 161307 160864 155825 155731 155682 155478
          154917 154581 144897 147350 148760 147607 146110 145927 145850 145547 145029 144751
          134973 135397 135953 143032 143283 143174 142285 135509 135147 134926 125141 125397
          125711 130210 131508 131490 130180 125553 125288 125107 115325 115538 115770 116272
          117617 117591 116204 115648 115450 115294 105513 105722 105927 106218 106697 106662
          106130 105818 105640 105484
        </DataArray>
        <DataArray type="Float32" Name="nonwetting potential" NumberOfComponents="1" format="ascii">
          57820.3 58105 58343.6 58563.2 58760.8 58916.7 59319.5 60655 58740.3 57835 62356.7 62629.2
          62861 63081.3 63284.1 63419.4 63570.3 63699.7 62918.9 62337.2 66938.4 67163.5 67381.2 67603.8
          67824.4 67922.1 67985.7 67927.6 67298.9 66829.2 71560.6 71698.1 71900.2 72126.8 72396.1 72434.4
          72435.4 72295.7 71714.4 71317.5 76023 81702.5 82533 82090 77050.7 76956.8 76908 76703.7
          76143 75807.1 80445.3 82898.4 84308.7 83155.1 81658.2 81475.5 81398.4 81095.6 80576.8 80299.8
          84843.7 85267.6 85824 92902.5 93154.1 93044.8 92155.9 85379.5 85018 84797 89334.1 89590.9
          89904.5 94403.1 95701.3 95684 94373.8 89746.1 89481.8 89300.3 93841.2 94054.3 94286 94788
          96133 96106.9 94720.3 94163.8 93966.5 93810.5 98351.9 98560.6 98765.5 99057.1 99536.2 99500.5
          98968.8 98657 98479 98322.7
        </DataArray>
        <DataArray type="Float32" Name="capillary pressure" NumberOfComponents="1" format="ascii">
          500 500 500 500 500 500.485 554.552 721.195 581.687 503.344 500.002 500
          500 500 500 500 505.229 591.571 520.231 500.069 503.88 500 500 500
          500 500 502.595 580.271 518.863 500.061 532.645 500.005 500 500 500.489 500
          502.807 580.874 520.976 500.083 551.607 5001.38 5004.22 5000.9 515.385 500.002 503.437 582.454
          522.806 500.11 559.481 833.722 843.58 625.852 534.448 500.146 504.231 584.54 522.94 500.121
          505.793 584.551 643.288 5008.22 5015.1 5015.29 5009.88 587.499 520.635 500.102 500.248 519.786
          585.61 929.73 925.795 925.802 929.087 588.025 516.633 500.073 500 501.811 536.154 700.853
          780.726 782.012 714.89 537.977 501.778 500 500 500.003 504.419 527.16 594.889 595.094
          528.699 505.197 500.004 500
        </DataArray>
        <DataArray type="Float32" Name="wetting-velocity" NumberOfComponents="3" format="ascii">
          -1.66185e-05 -1.19091e-06 0 -1.30834e-05 -5.76616e-07 0 -1.14546e-05 -2.37772e-07 0 -1.04286e-05 -2.75236e-07 0
          -8.80349e-06 -5.37324e-07 0 -7.92473e-06 4.68315e-07 0 -4.42957e-06 5.56233e-06 0 1.32266e-07 2.92117e-06 0
          6.3543e-06 5.64277e-06 0 1.52107e-05 3.4585e-07 0 -1.75015e-05 -4.31326e-06 0 -1.26066e-05 -1.66089e-06 0
          -1.13039e-05 -6.19238e-07 0 -1.05784e-05 -7.69551e-07 0 -8.45117e-06 -1.91917e-06 0 -6.81428e-06 9.62881e-07 0
          -3.68365e-06 9.90059e-06 0 3.51162e-06 5.3588e-06 0 1.47538e-05 9.94847e-06 0 2.06875e-05 1.37464e-06 0
          -1.82945e-05 -5.7073e-06 0 -1.0924e-05 -2.18629e-06 0 -1.10089e-05 -7.02711e-07 0 -1.10786e-05 -1.01404e-06 0
          -7.95675e-06 -4.29919e-06 0 -3.9242e-06 5.08374e-07 0 1.17938e-07 7.31113e-06 0 5.35177e-06 3.83884e-06 0
          1.2739e-05 7.53199e-06 0 1.76552e-05 2.2395e-06 0 -1.1857e-05 -1.19066e-06 0 -7.93815e-06 -1.11189e-06 0
          -1.07175e-05 -3.37294e-07 0 -1.23483e-05 -5.29206e-07 0 -7.6486e-06 -8.19238e-06 0 -9.20048e-07 -4.76546e-07 0
          2.60457e-06 4.86778e-06 0 5.92473e-06 2.40465e-06 0 1.06495e-05 5.90191e-06 0 1.47393e-05 2.36345e-06 0
          -4.93897e-06 2.91976e-06 0 -8.19349e-09 -9.91239e-09 0 -9.65165e-10 -1.60923e-08 0 3.8592e-09 -1.16068e-08 0
          1.6393e-06 -7.42836e-06 0 2.89271e-06 -7.87988e-07 0 4.57133e-06 2.95173e-06 0 6.41709e-06 2.12359e-06 0
          9.02401e-06 5.0882e-06 0 1.22193e-05 2.14642e-06 0 -2.8975e-06 3.04543e-06 0 -2.12251e-07 1.1898e-06 0
          -7.04081e-08 7.35408e-07 0 3.4524e-06 -1.05353e-08 0 5.79157e-06 -2.17774e-06 0 4.31078e-06 -3.22434e-07 0
          6.38989e-06 1.0397e-06 0 7.17801e-06 3.13514e-06 0 7.51794e-06 4.5768e-06 0 1.00998e-05 1.75895e-06 0
          -8.10072e-06 2.30111e-06 0 -2.95153e-06 3.772e-06 0 -6.80897e-07 2.83385e-06 0 -1.3988e-08 -8.42062e-09 0
          -3.33283e-10 -2.44453e-08 0 2.43197e-09 -2.48207e-08 0 1.37467e-08 -1.71336e-08 0 1.69565e-06 3.25101e-06 0
          5.58516e-06 3.66201e-06 0 8.44008e-06 1.22565e-06 0 -1.03993e-05 1.04134e-06 0 -6.13945e-06 3.79914e-06 0
          -1.52201e-06 3.49825e-06 0 -8.40497e-08 2.93121e-07 0 -3.6731e-08 2.62541e-07 0 3.80243e-08 2.62661e-07 0
          8.62731e-08 2.8857e-07 0 1.16928e-06 1.98417e-06 0 4.50198e-06 2.0251e-06 0 7.46276e-06 5.77001e-07 0
          -1.06831e-05 3.56431e-07 0 -8.22593e-06 1.43988e-06 0 -3.23072e-06 1.44337e-06 0 -3.76632e-07 1.79559e-06 0
          -1.89205e-07 1.16582e-06 0 2.12443e-07 1.15634e-06 0 3.62704e-07 1.81978e-06 0 2.57722e-06 3.37462e-07 0
          6.20191e-06 4.44262e-07 0 7.7512e-06 1.37677e-07 0 -1.06261e-05 9.62294e-08 0 -9.9876e-06 2.22903e-07 0
          -9.39196e-06 4.35148e-08 0 -6.57521e-06 1.50245e-06 0 -1.82147e-06 9.03259e-07 0 2.31088e-06 8.93655e-07 0
          7.00145e-06 1.53119e-06 0 8.89683e-06 -4.10685e-07 0 7.98173e-06 -8.30511e-08 0 7.85813e-06 2.10567e-08 0
        </DataArray>
        <DataArray type="Float32" Name="non-wetting-velocity" NumberOfComponents="3" format="ascii">
          0 -1.57656e-18 0 0 0 0 0 0 0 -5.68259e-34 0 0
          -2.81112e-13 0 0 -7.40737e-07 -1.57724e-20 0 -1.62781e-05 -2.91875e-08 0 4.3838e-06 -5.85175e-05 0
          2.41183e-05 -1.81604e-06 0 4.19731e-06 -4.87468e-14 0 -7.43087e-20 -8.34663e-09 0 0 -6.51966e-30 0
          0 0 0 0 0 0 -2.35616e-22 -1.88186e-26 0 -3.34813e-10 -1.57785e-20 0
          -7.49855e-07 -3.16047e-08 0 3.37396e-06 -8.71741e-05 0 4.19345e-06 -2.54473e-06 0 6.99709e-08 -8.02937e-14 0
          -4.87643e-10 -4.22189e-06 0 -1.5491e-31 -2.24275e-17 0 0 -5.81305e-35 0 -4.57084e-28 -5.95717e-32 0
          -6.60181e-26 -1.68984e-11 0 -1.73988e-11 -6.08712e-24 0 -9.69138e-12 -5.39867e-09 0 2.5568e-06 -5.50028e-05 0
          2.60291e-06 -1.67437e-06 0 4.61198e-08 -1.11909e-13 0 -2.5559e-07 -1.22137e-05 0 -2.30622e-19 -8.17326e-17 0
          -1.49328e-33 -1.79146e-15 0 -4.97724e-13 -1.64784e-17 0 -4.97724e-13 -5.02443e-07 0 -3.20673e-13 -1.43916e-18 0
          2.31419e-11 -8.40988e-09 0 2.36938e-06 -5.37432e-05 0 2.42234e-06 -2.13944e-06 0 5.29855e-08 -2.68139e-13 0
          -6.44538e-07 -2.051e-05 0 -5.18926e-17 -1.18881e-08 0 -1.63532e-17 -1.75817e-08 0 2.28754e-17 -8.19335e-09 0
          5.08971e-09 -4.94601e-06 0 5.08971e-09 -4.47633e-13 0 6.30059e-11 -1.54656e-08 0 2.35247e-06 -5.59975e-05 0
          2.40947e-06 -2.43079e-06 0 5.70642e-08 -4.36045e-13 0 -3.24212e-05 -1.2553e-05 0 -6.73499e-05 -5.49188e-05 0
          -1.99361e-05 -4.44373e-05 0 2.77972e-05 -8.19337e-09 0 1.23092e-05 -4.44358e-06 0 9.94272e-08 -5.38905e-13 0
          1.74319e-10 -1.00372e-08 0 2.29164e-06 -5.8279e-05 0 2.33932e-06 -2.19164e-06 0 4.78529e-08 -3.97202e-13 0
          -2.08417e-06 -4.31525e-08 0 -6.30237e-06 -5.67758e-05 0 -4.21895e-06 -9.43678e-05 0 -4.85588e-15 -1.47951e-08 0
          -2.73115e-16 -2.48394e-08 0 1.96875e-15 -2.57283e-08 0 9.01032e-15 -2.18098e-08 0 1.73976e-06 -6.10812e-05 0
          1.7679e-06 -1.49402e-06 0 2.81351e-08 -2.0469e-13 0 -2.89188e-08 -2.28811e-12 0 -1.48014e-06 -1.8698e-06 0
          -5.71166e-05 -5.78431e-05 0 -9.43306e-05 -1.54385e-05 0 -3.81505e-05 -2.15151e-05 0 3.95204e-05 -2.11361e-05 0
          9.62859e-05 -1.46095e-05 0 5.86016e-05 -4.05653e-05 0 1.33376e-06 -5.40305e-07 0 1.23477e-08 -5.5756e-14 0
          -1.98829e-11 -6.97209e-23 0 -1.42398e-07 -9.76035e-10 0 -6.60428e-06 -7.91062e-06 0 -3.01101e-05 -4.85251e-05 0
          -2.30933e-05 -9.67624e-05 0 2.60724e-05 -9.63543e-05 0 3.28678e-05 -5.79092e-05 0 7.48892e-06 -9.17531e-06 0
          1.3876e-07 -9.01499e-10 0 1.37638e-11 -1.1072e-23 0 -8.82884e-20 0 0 -2.75217e-10 -3.88852e-18 0
          -7.90067e-08 -1.55821e-08 0 -2.66582e-06 -3.31014e-05 0 -2.43726e-06 -0.000109519 0 3.00237e-06 -0.000109491 0
          2.95041e-06 -4.33214e-05 0 9.82478e-08 -1.27463e-08 0 3.87825e-10 -8.16672e-18 0 1.44279e-19 0 0
        </DataArray>
        <DataArray type="Float32" Name="wetting saturation" NumberOfComponents="1" format="ascii">
          1 1 1 1 1 0.99706 0.732292 0.332931 0.634346 0.980012 0.999986 1
          1 1 1 0.999997 0.969239 0.603657 0.887605 0.999582 0.976696 1 1 1
          1 1 0.984575 0.639757 0.894716 0.999634 0.826537 0.999967 1 1 0.997024 1
          0.983329 0.63777 0.88388 0.999501 0.744534 0.999446 0.998311 0.999638 0.912734 0.999987 0.979641 0.632593
          0.874654 0.999338 0.713643 0.21559 0.208151 0.509759 0.818685 0.999118 0.975021 0.625843 0.874017 0.999275
          0.965942 0.62561 0.469409 0.996718 0.993985 0.99391 0.996059 0.616433 0.885705 0.999389 0.998512 0.890072
          0.622421 0.155512 0.157505 0.157502 0.155835 0.61478 0.906479 0.99956 1 0.989204 0.811031 0.362993
          0.262605 0.261312 0.34202 0.802824 0.989402 1 1 0.999982 0.973947 0.853279 0.593734 0.593124
          0.845851 0.969451 0.999977 1
        </DataArray>
        <DataArray type="Float32" Name="nonwetting saturation" NumberOfComponents="1" format="ascii">
          2.43139e-14 -1.7808e-13 -5.06262e-14 -9.9476e-14 3.52871e-10 0.00294039 0.267708 0.667069 0.365654 0.0199878 1.41026e-05 -1.16129e-13
          -2.64011e-13 -2.65787e-13 -1.56541e-13 2.89296e-06 0.0307612 0.396343 0.112395 0.00041823 0.0233044 2.30272e-09 -1.7808e-13 -1.94067e-13
          3.20241e-08 2.10163e-07 0.0154247 0.360243 0.105284 0.000365611 0.173463 3.30359e-05 4.46398e-11 4.7085e-10 0.00297624 4.08694e-08
          0.0166708 0.36223 0.11612 0.000499069 0.255466 0.000553964 0.00168921 0.000362009 0.0872658 1.31906e-05 0.0203585 0.367407
          0.125346 0.000661621 0.286357 0.78441 0.791849 0.490241 0.181315 0.000882451 0.0249785 0.374157 0.125983 0.000725287
          0.0340585 0.37439 0.530591 0.00328162 0.00601484 0.00608952 0.003941 0.383567 0.114295 0.00061086 0.00148828 0.109928
          0.377579 0.844488 0.842495 0.842498 0.844165 0.38522 0.0935207 0.000439676 4.73449e-07 0.0107956 0.188969 0.637007
          0.737395 0.738688 0.65798 0.197176 0.0105977 2.56628e-07 1.09912e-14 1.79666e-05 0.0260528 0.146721 0.406266 0.406876
          0.154149 0.0305494 2.33026e-05 1.04361e-14
        </DataArray>
      </CellData>
      <Points>
        <DataArray type="Float32" Name="Coordinates" NumberOfComponents="3" format="ascii">
          0 0 0 2 0 0 0 1 0 2 1 0
          4 0 0 4 1 0 6 0 0 6 1 0
          8 0 0 8 1 0 10 0 0 10 1 0
          12 0 0 12 1 0 14 0 0 14 1 0
          16 0 0 16 1 0 18 0 0 18 1 0
          20 0 0 20 1 0 0 2 0 2 2 0
          4 2 0 6 2 0 8 2 0 10 2 0
          12 2 0 14 2 0 16 2 0 18 2 0
          20 2 0 0 3 0 2 3 0 4 3 0
          6 3 0 8 3 0 10 3 0 12 3 0
          14 3 0 16 3 0 18 3 0 20 3 0
          0 4 0 2 4 0 4 4 0 6 4 0
          8 4 0 10 4 0 12 4 0 14 4 0
          16 4 0 18 4 0 20 4 0 0 5 0
          2 5 0 4 5 0 6 5 0 8 5 0
          10 5 0 12 5 0 14 5 0 16 5 0
          18 5 0 20 5 0 0 6 0 2 6 0
          4 6 0 6 6 0 8 6 0 10 6 0
          12 6 0 14 6 0 16 6 0 18 6 0
          20 6 0 0 7 0 2 7 0 4 7 0
          6 7 0 8 7 0 10 7 0 12 7 0
          14 7 0 16 7 0 18 7 0 20 7 0
          0 8 0 2 8 0 4 8 0 6 8 0
          8 8 0 10 8 0 12 8 0 14 8 0
          16 8 0 18 8 0 20 8 0 0 9 0
          2 9 0 4 9 0 6 9 0 8 9 0
          10 9 0 12 9 0 14 9 0 16 9 0
          18 9 0 20 9 0 0 10 0 2 10 0
          4 10 0 6 10 0 8 10 0 10 10 0
          12 10 0 14 10 0 16 10 0 18 10 0
          20 10 0
        </DataArray>
      </Points>
      <Cells>
        <DataArray type="Int32" Name="connectivity" NumberOfComponents="1" format="ascii">
          0 1 3 2 1 4 5 3 4 6 7 5
          6 8 9 7 8 10 11 9 10 12 13 11
          12 14 15 13 14 16 17 15 16 18 19 17
          18 20 21 19 2 3 23 22 3 5 24 23
          5 7 25 24 7 9 26 25 9 11 27 26
          11 13 28 27 13 15 29 28 15 17 30 29
          17 19 31 30 19 21 32 31 22 23 34 33
          23 24 35 34 24 25 36 35 25 26 37 36
          26 27 38 37 27 28 39 38 28 29 40 39
          29 30 41 40 30 31 42 41 31 32 43 42
          33 34 45 44 34 35 46 45 35 36 47 46
          36 37 48 47 37 38 49 48 38 39 50 49
          39 40 51 50 40 41 52 51 41 42 53 52
          42 43 54 53 44 45 56 55 45 46 57 56
          46 47 58 57 47 48 59 58 48 49 60 59
          49 50 61 60 50 51 62 61 51 52 63 62
          52 53 64 63 53 54 65 64 55 56 67 66
          56 57 68 67 57 58 69 68 58 59 70 69
          59 60 71 70 60 61 72 71 61 62 73 72
          62 63 74 73 63 64 75 74 64 65 76 75
          66 67 78 77 67 68 79 78 68 69 80 79
          69 70 81 80 70 71 82 81 71 72 83 82
          72 73 84 83 73 74 85 84 74 75 86 85
          75 76 87 86 77 78 89 88 78 79 90 89
          79 80 91 90 80 81 92 91 81 82 93 92
          82 83 94 93 83 84 95 94 84 85 96 95
          85 86 97 96 86 87 98 97 88 89 100 99
          89 90 101 100 90 91 102 101 91 92 103 102
          92 93 104 103 93 94 105 104 94 95 106 105
          95 96 107 106 96 97 108 107 97 98 109 108
          99 100 111 110 100 101 112 111 101 102 113 112
          102 103 114 113 103 104 115 114 104 105 116 115
          105 106 117 116 106 107 118 117 107 108 119 118
          108 109 120 119
        </DataArray>
        <DataArray type="Int32" Name="offsets" NumberOfComponents="1" format="ascii">
          4 8 12 16 20 24 28 32 36 40 44 48
          52 56 60 64 68 72 76 80 84 88 92 96
          100 104 108 112 116 120 124 128 132 136 140 144
          148 152 156 160 164 168 172 176 180 184 188 192
          196 200 204 208 212 216 220 224 228 232 236 240
          244 248 252 256 260 264 268 272 276 280 284 288
          292 296 300 304 308 312 316 320 324 328 332 336
          340 344 348 352 356 360 364 368 372 376 380 384
          388 392 396 400
        </DataArray>
        <DataArray type="UInt8" Name="types" NumberOfComponents="1" format="ascii">
          9 9 9 9 9 9 9 9 9 9 9 9
          9 9 9 9 9 9 9 9 9 9 9 9
          9 9 9 9 9 9 9 9 9 9 9 9
          9 9 9 9 9 9 9 9 9 9 9 9
          9 9 9 9 9 9 9 9 9 9 9 9
          9 9 9 9 9 9 9 9 9 9 9 9
          9 9 9 9 9 9 9 9 9 9 9 9
          9 9 9 9 9 9 9 9 9 9 9 9
          9 9 9 9
        </DataArray>
      </Cells>
    </Piece>
  </UnstructuredGrid>
</VTKFile>
