<?xml version="1.0"?>
<VTKFile type="UnstructuredGrid" version="0.1" byte_order="LittleEndian">
  <UnstructuredGrid>
    <Piece NumberOfCells="1000" NumberOfPoints="1331">
      <CellData Scalars="wetting pressure">
        <DataArray type="Float32" Name="wetting pressure" NumberOfComponents="1" format="ascii">
          265557 270785 272376 271439 268458 263590 256778 247786 236110 220680 265564 270808
          272420 271515 268574 263748 256954 247946 236219 220718 265574 270842 272490 271637
          268769 264037 257292 248263 236434 220792 265582 270869 272547 271745 268934 264371
          257729 248713 236727 220887 265582 270869 272555 271766 268944 264348 258026 249227
          236981 220954 265570 270834 272492 271674 268854 264299 257668 248660 236690 220873
          265550 270770 272376 271490 268604 263869 257137 248136 236349 220762 265527 270698
          272244 271282 268304 263465 256688 247726 236074 220667 265508 270637 272134 271114
          268070 263174 256379 247454 235890 220603 265497 270603 272073 271022 267946 263024
          256224 247318 235799 220571 262007 264593 265052 263600 260421 255568 248975 240502
          229947 217140 262015 264620 265107 263697 260574 255777 249201 240702 230081 217187
          262027 264661 265194 263859 260851 256201 249668 241123 230362 217280 262037 264696
          265272 264012 261094 256819 250385 241814 230813 217417 262038 264700 265292 264083
          261334 256888 250702 242716 231500 217550 262025 264660 265215 263940 261010 256716
          250354 241771 230778 217404 262002 264587 265076 263708 260686 256032 249520 240998
          230276 217250 261976 264504 264921 263453 260292 255482 248925 240474 229930 217134
          261954 264435 264794 263254 260007 255122 248548 240147 229713 217058 261942 264397
          264725 263147 259861 254946 248366 239991 229608 217022 260256 260499 259585 257394
          253907 249077 242825 235099 225902 215406 260266 260534 259657 257526 254125 249370
          243131 235360 226072 215464 260282 260589 259777 257761 254564 250014 243804 235932
          226438 215584 260295 260637 259889 258001 255016 250979 244994 236949 227058 215766
          260296 260647 259927 258134 255499 251294 245547 238305 228050 215954 260282 260598
          259829 257930 254957 250944 245013 236926 227029 215754 260254 260509 259651 257604
          254404 249860 243674 235814 226353 215553 260223 260408 259454 257261 253821 249055
          242840 235117 225910 215407 260197 260325 259298 257007 253444 248579 242351 234706
          225642 215316 260183 260279 259214 256875 253259 248355 242123 234514 225516 215272
          259139 257530 255321 252351 248519 243714 237846 230907 222986 214309 259152 257574
          255414 252525 248809 244095 238230 231224 223188 214377 259172 257644 255570 252840
          249427 244964 239087 231920 223619 214517 259189 257707 255719 253170 250109 246250
          240632 233148 224336 214726 259192 257722 255772 253341 250676 246645 241306 234676
          225405 214933 259175 257665 255654 253094 250044 246191 240878 233175 224317 214715
          259142 257556 255431 252669 249258 244808 239000 231815 223534 214485 259104 257433
          255188 252229 248471 243749 237918 230961 223010 214315 259073 257333 254996 251911
          247990 243147 237308 230463 222694 214208 259056 257277 254894 251748 247761 242871
          237030 230233 222545 214156 258276 255116 251727 247999 243816 239034 233553 227382
          220624 213465 258291 255169 251839 248208 244164 239484 233996 227739 220848 213540
          258315 255255 252028 248590 244911 240508 234975 228511 221316 213690 258336 255330
          252208 248986 245739 241981 236709 229829 222059 213907 258340 255349 252270 249176
          246319 242385 237424 231399 223066 214107 258320 255283 252135 248900 245663 241897
          237105 229887 222044 213897 258281 255155 251872 248398 244722 240337 234905 228404
          221224 213655 258237 255010 251583 247873 243782 239094 233649 227446 220650 213469
          258200 254891 251355 247494 243210 238386 232941 226878 220294 213350 258180 254825
          251233 247300 242937 238060 232618 226614 220124 213292 257485 252878 248359 243892
          239363 234606 229508 224086 218441 212694 257503 252940 248490 244133 239758 235109
          229995 224474 218681 212774 257531 253040 248708 244566 240588 236226 231041 225290
          219169 212931 257556 253128 248912 245007 241483 237775 232795 226620 219900 213145
          257560 253149 248982 245208 242068 238187 233556 228176 220789 213327 257537 253075
          248832 244912 241400 237694 233059 226641 219874 213131 257493 252928 248533 244350
          240373 236026 230916 225149 219060 212890 257442 252760 248200 243752 239323 234661
          229589 224136 218455 212694 257399 252622 247935 243315 238669 233864 228808 223513
          218066 212564 257375 252545 247793 243089 238354 233492 228443 223217 217878 212500
          256629 250489 244810 239606 234744 230019 225299 220626 216119 211863 256650 250562
          244963 239885 235194 230584 225842 221054 216381 211950 256683 250677 245213 240374
          236107 231797 226969 221927 216897 212115 256712 250778 245443 240857 237051 233391
          228749 223271 217621 212329 256717 250803 245520 241071 237648 233824 229521 224821
          218387 212491 256691 250720 245354 240752 236961 233318 228749 223232 217577 212311
          256641 250553 245017 240131 235865 231562 226761 221741 216766 212068 256582 250360
          244636 239454 234701 230072 225367 220663 216123 211859 256532 250199 244329 238948
          233951 229169 224498 219973 215694 211716 256505 250110 244163 238685 233585 228740
          224082 219638 215483 211644 255527 247567 240634 234700 229540 224860 220503 216570
          213284 210792 255552 247653 240817 235037 230089 225547 221154 217076 213588 210892
          255591 247789 241113 235617 231159 226952 222458 218079 214172 211078 255624 247906
          241379 236168 232198 228645 224354 219529 214940 211306 255631 247936 241468 236406
          232835 229126 225174 221112 215624 211459 255602 247842 241282 236054 232102 228567
          224362 219492 214896 211287 255545 247652 240898 235350 230894 226694 222229 217877
          214029 211027 255477 247429 240454 234559 229539 224974 220622 216640 213301 210792
          255420 247243 240094 233956 228637 223890 219590 215830 212805 210627 255387 247139
          239897 233641 228193 223371 219094 215436 212559 210544 253793 243530 235278 228684
          223308 218692 214633 211365 209349 209093 253822 243632 235502 229118 224060 219640
          215501 212012 209725 209214 253867 243792 235861 229850 225472 221520 217243 213315
          210451 209439 253905 243930 236179 230519 226741 223423 219471 215155 211391 209712
          253914 243967 236288 230807 227498 224022 220382 216713 212103 209881 253882 243862
          236075 230398 226642 223318 219776 215204 211368 209698 253817 243646 235631 229567
          225196 221256 217061 213132 210310 209387 253741 243391 235110 228600 223470 219028
          214933 211545 209416 209106 253676 243176 234683 227856 222296 217600 213609 210540
          208819 208911 253639 243056 234452 227472 221734 216938 212990 210061 208527 208814
          250255 237378 228043 221015 215567 211020 207107 204259 203279 205582 250287 237495
          228308 221576 216732 212524 208323 205094 203735 205724 250337 237675 228730 222516
          218858 215700 211197 206950 204663 205998 250379 237830 229099 223336 220615 217675
          214155 210262 205988 206348 250389 237873 229229 223700 221685 218603 215036 211433
          207056 206573 250355 237760 228992 223213 220516 217589 214110 210451 205997 206338
          250286 237524 228493 222227 218591 215452 211017 206796 204531 205947 250203 237243
          227898 221042 216160 211936 207738 204612 203415 205612 250132 237006 227413 220132
          214478 209840 206000 203374 202714 205389 250092 236875 227153 219680 213770 208997
          205248 202814 202382 205280
        </DataArray>
        <DataArray type="Float32" Name="nonwetting pressure" NumberOfComponents="1" format="ascii">
          265557 270785 272376 271439 268458 263590 256778 247786 236110 220680 265564 270808
          272420 271515 268574 263748 256954 247946 236219 220718 265574 270842 272490 271637
          268769 264037 257292 248263 236434 220792 265582 270869 272547 271745 268946 264371
          257729 248713 236727 220887 265582 270869 272555 271766 269348 264490 258083 249227
          236981 220954 265570 270834 272492 271674 268869 264299 257668 248660 236690 220873
          265550 270770 272376 271490 268604 263869 257137 248136 236349 220762 265527 270698
          272244 271282 268304 263465 256688 247726 236074 220667 265508 270637 272134 271114
          268070 263174 256379 247454 235890 220603 265497 270603 272073 271022 267946 263024
          256224 247318 235799 220571 262007 264593 265052 263600 260421 255568 248975 240502
          229947 217140 262015 264620 265107 263697 260574 255777 249201 240702 230081 217187
          262027 264661 265194 263859 260851 256201 249668 241123 230362 217280 262037 264696
          265272 264012 261159 256845 250385 241814 230813 217417 262038 264700 265292 264083
          262013 257224 250881 242796 231500 217550 262025 264660 265215 263940 261081 256750
          250354 241771 230778 217404 262002 264587 265076 263708 260686 256032 249520 240998
          230276 217250 261976 264504 264921 263453 260292 255482 248925 240474 229930 217134
          261954 264435 264794 263254 260007 255122 248548 240147 229713 217058 261942 264397
          264725 263147 259861 254946 248366 239991 229608 217022 260256 260499 259585 257394
          253907 249077 242825 235099 225902 215406 260266 260534 259657 257526 254125 249370
          243131 235360 226072 215464 260282 260589 259777 257761 254564 250014 243804 235932
          226438 215584 260295 260637 259889 258001 255151 251060 244994 236949 227058 215766
          260296 260647 259927 258134 256293 251737 245805 238432 228050 215954 260282 260598
          259829 257930 255100 251031 245013 236926 227029 215754 260254 260509 259651 257604
          254404 249860 243674 235814 226353 215553 260223 260408 259454 257261 253821 249055
          242840 235117 225910 215407 260197 260325 259298 257007 253444 248579 242351 234706
          225642 215316 260183 260279 259214 256875 253259 248355 242123 234514 225516 215272
          259139 257530 255321 252351 248519 243714 237846 230907 222986 214309 259152 257574
          255414 252525 248809 244095 238230 231224 223188 214377 259172 257644 255570 252840
          249427 244964 239087 231920 223619 214517 259189 257707 255719 253170 250285 246370
          240632 233148 224336 214726 259192 257722 255772 253341 251497 247119 241590 234816
          225405 214933 259175 257665 255654 253094 250226 246318 240879 233175 224317 214715
          259142 257556 255431 252669 249258 244808 239000 231815 223534 214485 259104 257433
          255188 252229 248471 243749 237918 230961 223010 214315 259073 257333 254996 251911
          247990 243147 237308 230463 222694 214208 259056 257277 254894 251748 247761 242871
          237030 230233 222545 214156 258276 255116 251727 247999 243816 239034 233553 227382
          220624 213465 258291 255169 251839 248208 244164 239484 233996 227739 220848 213540
          258315 255255 252028 248590 244911 240508 234975 228511 221316 213690 258336 255330
          252208 248986 245925 242113 236709 229829 222059 213907 258340 255349 252270 249176
          247140 242864 237710 231533 223066 214107 258320 255283 252135 248900 245856 242039
          237115 229887 222044 213897 258281 255155 251872 248398 244722 240337 234905 228404
          221224 213655 258237 255010 251583 247873 243782 239094 233649 227446 220650 213469
          258200 254891 251355 247494 243210 238386 232941 226878 220294 213350 258180 254825
          251233 247300 242937 238060 232618 226614 220124 213292 257485 252878 248359 243892
          239363 234606 229508 224086 218441 212694 257503 252940 248490 244133 239758 235109
          229995 224474 218681 212774 257531 253040 248708 244566 240588 236226 231041 225290
          219169 212931 257556 253128 248912 245007 241666 237910 232795 226620 219900 213145
          257560 253149 248982 245208 242882 238664 233834 228296 220789 213327 257537 253075
          248832 244912 241590 237837 233061 226641 219874 213131 257493 252928 248533 244350
          240373 236026 230916 225149 219060 212890 257442 252760 248200 243752 239323 234661
          229589 224136 218455 212694 257399 252622 247935 243315 238669 233864 228808 223513
          218066 212564 257375 252545 247793 243089 238354 233492 228443 223217 217878 212500
          256629 250489 244810 239606 234744 230019 225299 220626 216119 211863 256650 250562
          244963 239885 235194 230584 225842 221054 216381 211950 256683 250677 245213 240374
          236107 231797 226969 221927 216897 212115 256712 250778 245443 240857 237228 233525
          228749 223271 217621 212329 256717 250803 245520 241071 238455 234299 229790 224922
          218387 212491 256691 250720 245354 240752 237146 233459 228749 223232 217577 212311
          256641 250553 245017 240131 235865 231562 226761 221741 216766 212068 256582 250360
          244636 239454 234701 230072 225367 220663 216123 211859 256532 250199 244329 238948
          233951 229169 224498 219973 215694 211716 256505 250110 244163 238685 233585 228740
          224082 219638 215483 211644 255527 247567 240634 234700 229540 224860 220503 216570
          213284 210792 255552 247653 240817 235037 230089 225547 221154 217076 213588 210892
          255591 247789 241113 235617 231159 226952 222458 218079 214172 211078 255624 247906
          241379 236168 232375 228780 224354 219529 214940 211306 255631 247936 241468 236406
          233645 229601 225436 221191 215624 211459 255602 247842 241282 236054 232287 228709
          224362 219492 214896 211287 255545 247652 240898 235350 230894 226694 222229 217877
          214029 211027 255477 247429 240454 234559 229539 224974 220622 216640 213301 210792
          255420 247243 240094 233956 228637 223890 219590 215830 212805 210627 255387 247139
          239897 233641 228193 223371 219094 215436 212559 210544 253793 243530 235278 228684
          223308 218692 214633 211365 209349 209093 253822 243632 235502 229118 224060 219640
          215501 212012 209725 209214 253867 243792 235861 229850 225472 221520 217243 213315
          210451 209439 253905 243930 236179 230519 226937 223571 219471 215155 211391 209712
          253914 243967 236288 230807 228347 224514 220647 216780 212103 209881 253882 243862
          236075 230398 226845 223476 219785 215204 211368 209698 253817 243646 235631 229567
          225196 221256 217061 213132 210310 209387 253741 243391 235110 228600 223470 219028
          214933 211545 209416 209106 253676 243176 234683 227856 222296 217600 213609 210540
          208819 208911 253639 243056 234452 227472 221734 216938 212990 210061 208527 208814
          250255 237378 228043 221015 215567 211020 207107 204259 203279 205582 250287 237495
          228308 221576 216732 212524 208323 205094 203735 205724 250337 237675 228730 222516
          219025 215842 211197 206950 204663 205998 250379 237830 229099 223336 221195 218171
          214426 210276 205988 206348 250389 237873 229229 223700 223053 219540 215656 211715
          207056 206573 250355 237760 228992 223213 221108 218096 214389 210475 205997 206338
          250286 237524 228493 222227 218772 215609 211017 206796 204531 205947 250203 237243
          227898 221042 216160 211936 207738 204612 203415 205612 250132 237006 227413 220132
          214478 209840 206000 203374 202714 205389 250092 236875 227153 219680 213770 208997
          205248 202814 202382 205280
        </DataArray>
        <DataArray type="Float32" Name="wetting saturation" NumberOfComponents="1" format="ascii">
          1 1 1 1 1 1 1 1 1 1 1 1
          1 1 1 1 1 1 1 1 1 1 1 1
          1 1 1 1 1 1 1 1 1 1 0.998785 1
          1 1 1 1 1 1 1 1 0.959668 0.985749 0.994323 1
          1 1 1 1 1 1 0.998523 1 1 1 1 1
          1 1 1 1 1 1 1 1 1 1 1 1
          1 1 1 1 1 1 1 1 1 1 1 1
          1 1 1 1 1 1 1 1 1 1 1 1
          1 1 1 1 1 1 1 1 1 1 1 1
          1 1 1 1 1 1 1 1 1 1 1 1
          1 1 1 1 1 1 1 1 1 1 1 1
          1 1 0.993529 0.997365 1 1 1 1 1 1 1 1
          0.932071 0.966396 0.982088 0.99196 1 1 1 1 1 1 0.992846 0.996605
          1 1 1 1 1 1 1 1 1 1 1 1
          1 1 1 1 1 1 1 1 1 1 1 1
          1 1 1 1 1 1 1 1 1 1 1 1
          1 1 1 1 1 1 1 1 1 1 1 1
          1 1 1 1 1 1 1 1 1 1 1 1
          1 1 1 1 1 1 1 1 1 1 1 1
          1 1 1 1 1 1 0.986458 0.991946 1 1 1 1
          1 1 1 1 0.920634 0.955762 0.974167 0.987321 1 1 1 1
          1 1 0.985772 0.991272 1 1 1 1 1 1 1 1
          1 1 1 1 1 1 1 1 1 1 1 1
          1 1 1 1 1 1 1 1 1 1 1 1
          1 1 1 1 1 1 1 1 1 1 1 1
          1 1 1 1 1 1 1 1 1 1 1 1
          1 1 1 1 1 1 1 1 1 1 1 1
          1 1 1 1 1 1 1 1 1 1 0.982411 0.988028
          1 1 1 1 1 1 1 1 0.917856 0.952636 0.971566 0.985995
          1 1 1 1 1 1 0.981736 0.987301 0.999904 1 1 1
          1 1 1 1 1 1 1 1 1 1 1 1
          1 1 1 1 1 1 1 1 1 1 1 1
          1 1 1 1 1 1 1 1 1 1 1 1
          1 1 1 1 1 1 1 1 1 1 1 1
          1 1 1 1 1 1 1 1 1 1 1 1
          1 1 1 1 1 1 1 1 1 1 1 1
          1 1 0.98145 0.986733 1 1 1 1 1 1 1 1
          0.917905 0.952192 0.971465 0.986571 1 1 1 1 1 1 0.980747 0.985849
          0.999065 1 1 1 1 1 1 1 1 1 1 1
          1 1 1 1 1 1 1 1 1 1 1 1
          1 1 1 1 1 1 1 1 1 1 1 1
          1 1 1 1 1 1 1 1 1 1 1 1
          1 1 1 1 1 1 1 1 1 1 1 1
          1 1 1 1 1 1 1 1 1 1 1 1
          1 1 1 1 1 1 0.981754 0.986553 1 1 1 1
          1 1 1 1 0.918654 0.952369 0.972202 0.987958 1 1 1 1
          1 1 0.981019 0.98572 0.999786 1 1 1 1 1 1 1
          1 1 1 1 1 1 1 1 1 1 1 1
          1 1 1 1 1 1 1 1 1 1 1 1
          1 1 1 1 1 1 1 1 1 1 1 1
          1 1 1 1 1 1 1 1 1 1 1 1
          1 1 1 1 1 1 1 1 1 1 1 1
          1 1 1 1 1 1 1 1 1 1 0.982273 0.986599
          1 1 1 1 1 1 1 1 0.919243 0.952579 0.973057 0.989888
          1 1 1 1 1 1 0.981504 0.985883 1 1 1 1
          1 1 1 1 1 1 1 1 1 1 1 1
          1 1 1 1 1 1 1 1 1 1 1 1
          1 1 1 1 1 1 1 1 1 1 1 1
          1 1 1 1 1 1 1 1 1 1 1 1
          1 1 1 1 1 1 1 1 1 1 1 1
          1 1 1 1 1 1 1 1 1 1 1 1
          1 1 0.982353 0.986464 1 1 1 1 1 1 1 1
          0.918965 0.952578 0.973794 0.992148 1 1 1 1 1 1 0.981558 0.985739
          1 1 1 1 1 1 1 1 1 1 1 1
          1 1 1 1 1 1 1 1 1 1 1 1
          1 1 1 1 1 1 1 1 1 1 1 1
          1 1 1 1 1 1 1 1 1 1 1 1
          1 1 1 1 1 1 1 1 1 1 1 1
          1 1 1 1 1 1 1 1 1 1 1 1
          1 1 1 1 1 1 0.980454 0.98518 1 1 1 1
          1 1 1 1 0.915087 0.950798 0.973527 0.993293 1 1 1 1
          1 1 0.979647 0.984209 0.999145 1 1 1 1 1 1 1
          1 1 1 1 1 1 1 1 1 1 1 1
          1 1 1 1 1 1 1 1 1 1 1 1
          1 1 1 1 1 1 1 1 1 1 1 1
          1 1 1 1 1 1 1 1 1 1 1 1
          1 1 1 1 1 1 1 1 1 1 1 1
          0.983314 0.98584 1 1 1 1 1 1 1 1 0.941973 0.950429
          0.972821 0.998523 1 1 1 1 1 1 0.863164 0.906285 0.938003 0.971867
          1 1 1 1 1 1 0.940767 0.949336 0.972081 0.997557 1 1
          1 1 1 1 0.981942 0.984255 1 1 1 1 1 1
          1 1 1 1 1 1 1 1 1 1 1 1
          1 1 1 1 1 1 1 1 1 1 1 1
          1 1 1 1
        </DataArray>
        <DataArray type="Float32" Name="C^w from cellData" NumberOfComponents="1" format="ascii">
          199.956 199.956 199.956 199.956 199.956 199.955 199.955 199.954 199.953 199.952 199.956 199.956
          199.956 199.956 199.956 199.955 199.955 199.954 199.953 199.952 199.956 199.956 199.956 199.956
          199.953 199.955 199.955 199.954 199.953 199.952 199.956 199.956 199.956 199.942 199.328 199.67
          199.926 199.954 199.953 199.952 199.956 199.956 199.956 199.841 191.69 196.816 198.088 199.295
          199.953 199.952 199.956 199.956 199.956 199.939 199.263 199.613 199.921 199.954 199.953 199.952
          199.956 199.956 199.956 199.956 199.948 199.955 199.955 199.954 199.953 199.952 199.956 199.956
          199.956 199.956 199.956 199.955 199.955 199.954 199.953 199.952 199.956 199.956 199.956 199.956
          199.956 199.955 199.955 199.954 199.953 199.952 199.956 199.956 199.956 199.956 199.956 199.955
          199.955 199.954 199.953 199.952 199.955 199.956 199.956 199.955 199.955 199.955 199.954 199.953
          199.952 199.951 199.955 199.956 199.956 199.955 199.955 199.955 199.954 199.953 199.952 199.951
          199.955 199.956 199.956 199.955 199.842 199.949 199.954 199.953 199.952 199.951 199.955 199.956
          199.955 199.926 198.245 198.932 199.668 199.917 199.952 199.951 199.955 199.956 199.955 199.777
          186.566 192.983 195.974 197.533 199.538 199.951 199.955 199.956 199.955 199.926 198.143 198.792
          199.606 199.915 199.952 199.951 199.955 199.956 199.956 199.955 199.807 199.943 199.954 199.953
          199.952 199.951 199.955 199.956 199.956 199.955 199.955 199.955 199.954 199.953 199.952 199.951
          199.955 199.956 199.956 199.955 199.955 199.955 199.954 199.953 199.952 199.951 199.955 199.956
          199.956 199.955 199.955 199.955 199.954 199.953 199.952 199.951 199.955 199.955 199.955 199.955
          199.954 199.954 199.953 199.953 199.952 199.951 199.955 199.955 199.955 199.955 199.954 199.954
          199.953 199.953 199.952 199.951 199.955 199.955 199.955 199.955 199.634 199.864 199.953 199.953
          199.952 199.951 199.955 199.955 199.955 199.926 196.867 197.62 199.137 199.83 199.952 199.951
          199.955 199.955 199.955 199.769 184.316 191.009 194.22 196.228 199.082 199.951 199.955 199.955
          199.955 199.924 196.716 197.453 199.097 199.826 199.952 199.951 199.955 199.955 199.955 199.955
          199.596 199.84 199.953 199.953 199.952 199.951 199.955 199.955 199.955 199.955 199.954 199.954
          199.953 199.953 199.952 199.951 199.955 199.955 199.955 199.955 199.954 199.954 199.953 199.953
          199.952 199.951 199.955 199.955 199.955 199.955 199.954 199.954 199.953 199.953 199.952 199.951
          199.955 199.955 199.955 199.954 199.954 199.953 199.953 199.952 199.952 199.951 199.955 199.955
          199.955 199.954 199.954 199.953 199.953 199.952 199.952 199.951 199.955 199.955 199.955 199.954
          199.528 199.761 199.953 199.952 199.952 199.951 199.955 199.955 199.955 199.922 196.004 196.672
          198.95 199.8 199.952 199.951 199.955 199.955 199.955 199.803 183.72 190.399 193.616 195.921
          199.092 199.951 199.955 199.955 199.955 199.922 195.848 196.538 198.827 199.794 199.952 199.951
          199.955 199.955 199.955 199.954 199.492 199.722 199.953 199.952 199.952 199.951 199.955 199.955
          199.955 199.954 199.954 199.953 199.953 199.952 199.952 199.951 199.955 199.955 199.955 199.954
          199.954 199.953 199.953 199.952 199.952 199.951 199.955 199.955 199.955 199.954 199.954 199.953
          199.953 199.952 199.952 199.951 199.955 199.955 199.954 199.954 199.953 199.953 199.953 199.952
          199.951 199.951 199.955 199.955 199.954 199.954 199.953 199.953 199.953 199.952 199.951 199.951
          199.955 199.955 199.954 199.954 199.488 199.709 199.953 199.952 199.952 199.951 199.955 199.955
          199.954 199.918 195.783 196.382 198.902 199.819 199.952 199.951 199.955 199.955 199.954 199.867
          183.7 190.303 193.581 196.156 199.286 199.951 199.955 199.955 199.954 199.918 195.617 196.257
          198.713 199.813 199.952 199.951 199.955 199.955 199.954 199.954 199.45 199.662 199.952 199.952
          199.951 199.951 199.955 199.955 199.954 199.954 199.953 199.953 199.953 199.952 199.951 199.951
          199.955 199.955 199.954 199.954 199.953 199.953 199.953 199.952 199.951 199.951 199.955 199.955
          199.954 199.954 199.953 199.953 199.953 199.952 199.951 199.951 199.955 199.954 199.954 199.954
          199.953 199.953 199.952 199.952 199.951 199.951 199.955 199.954 199.954 199.954 199.953 199.953
          199.952 199.952 199.951 199.951 199.955 199.954 199.954 199.953 199.479 199.694 199.952 199.952
          199.951 199.951 199.955 199.954 199.954 199.914 195.836 196.351 198.942 199.857 199.951 199.951
          199.955 199.954 199.954 199.871 183.857 190.334 193.713 196.628 199.528 199.951 199.955 199.954
          199.954 199.914 195.662 196.202 198.801 199.853 199.951 199.951 199.955 199.954 199.954 199.953
          199.438 199.64 199.952 199.952 199.951 199.951 199.955 199.954 199.954 199.954 199.953 199.953
          199.952 199.952 199.951 199.951 199.955 199.954 199.954 199.954 199.953 199.953 199.952 199.952
          199.951 199.951 199.955 199.954 199.954 199.953 199.953 199.953 199.952 199.952 199.951 199.951
          199.955 199.954 199.954 199.953 199.953 199.952 199.952 199.951 199.951 199.951 199.955 199.954
          199.954 199.953 199.953 199.952 199.952 199.951 199.951 199.951 199.955 199.954 199.954 199.953
          199.475 199.684 199.952 199.951 199.951 199.951 199.955 199.954 199.954 199.909 195.939 196.385
          198.98 199.892 199.951 199.951 199.955 199.954 199.954 199.911 184.022 190.382 193.82 197.187
          199.72 199.951 199.955 199.954 199.954 199.909 195.756 196.2 198.941 199.889 199.951 199.951
          199.955 199.954 199.954 199.953 199.431 199.624 199.952 199.951 199.951 199.951 199.955 199.954
          199.954 199.953 199.953 199.952 199.952 199.951 199.951 199.951 199.955 199.954 199.954 199.953
          199.953 199.952 199.952 199.951 199.951 199.951 199.955 199.954 199.954 199.953 199.953 199.952
          199.952 199.951 199.951 199.951 199.955 199.954 199.953 199.953 199.952 199.952 199.951 199.951
          199.951 199.951 199.955 199.954 199.953 199.953 199.952 199.952 199.951 199.951 199.951 199.951
          199.955 199.954 199.953 199.953 199.452 199.653 199.951 199.951 199.951 199.951 199.955 199.954
          199.953 199.906 195.945 196.37 199.005 199.92 199.951 199.951 199.955 199.954 199.953 199.899
          184.055 190.401 193.951 197.734 199.849 199.951 199.955 199.954 199.953 199.906 195.754 196.183
          198.964 199.919 199.951 199.951 199.955 199.954 199.953 199.953 199.408 199.592 199.951 199.951
          199.951 199.951 199.955 199.954 199.953 199.953 199.952 199.952 199.951 199.951 199.951 199.951
          199.955 199.954 199.953 199.953 199.952 199.952 199.951 199.951 199.951 199.951 199.955 199.954
          199.953 199.953 199.952 199.952 199.951 199.951 199.951 199.951 199.955 199.954 199.953 199.952
          199.952 199.951 199.951 199.95 199.95 199.95 199.955 199.954 199.953 199.952 199.952 199.951
          199.951 199.951 199.95 199.95 199.955 199.954 199.953 199.952 199.379 199.547 199.951 199.951
          199.95 199.95 199.955 199.954 199.953 199.907 195.517 196.069 198.966 199.928 199.951 199.95
          199.955 199.954 199.953 199.911 183.358 190.08 193.819 198.018 199.891 199.95 199.955 199.954
          199.953 199.907 195.32 195.912 198.767 199.926 199.951 199.95 199.955 199.954 199.953 199.952
          199.337 199.484 199.95 199.951 199.95 199.95 199.955 199.954 199.953 199.952 199.952 199.951
          199.951 199.951 199.95 199.95 199.955 199.954 199.953 199.952 199.951 199.951 199.951 199.95
          199.95 199.95 199.955 199.954 199.953 199.952 199.951 199.951 199.951 199.95 199.95 199.95
          199.954 199.953 199.952 199.951 199.951 199.95 199.95 199.95 199.95 199.95 199.954 199.953
          199.952 199.951 199.576 199.753 199.95 199.95 199.95 199.95 199.954 199.953 199.952 199.928
          196.031 196.304 198.93 199.949 199.95 199.95 199.954 199.953 199.952 199.913 188.119 189.744
          193.178 198.319 199.949 199.95 199.954 199.953 199.952 199.883 172.921 181.402 187.386 192.955
          199.002 199.95 199.954 199.953 199.952 199.914 187.89 189.54 193.01 198.199 199.948 199.95
          199.954 199.953 199.952 199.928 195.708 195.856 198.806 199.948 199.95 199.95 199.954 199.953
          199.952 199.951 199.467 199.669 199.95 199.95 199.95 199.95 199.954 199.953 199.952 199.951
          199.951 199.95 199.95 199.95 199.95 199.95 199.954 199.953 199.952 199.951 199.951 199.95
          199.95 199.95 199.95 199.95
        </DataArray>
        <DataArray type="Float32" Name="C^n from cellData" NumberOfComponents="1" format="ascii">
          0 0 0 3.45184e-15 6.29571e-11 4.49459e-12 1.4013e-13 2.66117e-15 9.08345e-18 0 0 0
          5.45015e-16 8.52474e-12 1.0982e-07 9.50707e-09 3.72045e-10 7.72906e-12 1.11726e-13 1.54022e-15 7.6335e-18 1.06594e-14 9.89833e-13 7.76593e-09
          8.70931e-05 7.78055e-06 4.64294e-07 1.09956e-08 1.59871e-10 2.11871e-12 2.91575e-13 1.44099e-11 1.06962e-09 3.66985e-06 0.0165955 0.00351895
          0.000410858 1.16899e-05 1.60199e-07 1.96449e-09 6.39495e-10 2.58868e-08 1.47925e-06 0.00143873 0.0417698 0.0245481 0.0186333 0.00779398
          0.000131539 1.66086e-06 4.9872e-13 2.60596e-11 1.95334e-09 4.82599e-06 0.016758 0.00429423 0.000478383 1.31571e-05 1.80137e-07 2.20592e-09
          2.28221e-16 2.28877e-14 2.23983e-12 1.21607e-08 0.000146996 1.09603e-05 6.27917e-07 1.43163e-08 2.04974e-10 2.68566e-12 0 2.6306e-18
          1.69242e-15 1.78183e-11 2.02253e-07 1.6392e-08 6.25161e-10 1.2555e-11 1.7846e-13 1.95056e-15 0 0 0 1.30754e-14
          1.79879e-10 1.26808e-11 3.83647e-13 6.81188e-15 1.89654e-17 0 0 0 0 0 6.45313e-14 3.75146e-15
          6.06245e-17 0 0 0 0 0 0 1.03385e-14 6.45064e-10 3.42832e-11 1.08681e-12 1.63619e-14
          4.48307e-17 0 0 0 5.72208e-16 2.30223e-11 1.54628e-06 8.52577e-08 3.67314e-09 6.95827e-11 7.03549e-13 5.25133e-15