<?xml version="1.0"?>
<VTKFile type="UnstructuredGrid" version="0.1" byte_order="LittleEndian">
  <UnstructuredGrid>
    <Piece NumberOfCells="166" NumberOfPoints="199">
      <CellData Scalars="wetting potential" Vectors="wetting-velocity">
        <DataArray type="Float32" Name="wetting potential" NumberOfComponents="1" format="ascii">
          100032 100094 100154 100210 100257 100276 100265 100220 100145 100050 100033 100094
          100155 100213 100264 100283 100274 100228 100149 100052 100035 100095 100156 100217
          100278 100298 100292 100244 100159 100055 100039 100096 100157 100222 100304 100318
          100320 100269 100173 100059 100048 100196 100338 100393 100346 100342 100362 100306
          100191 100065 100081 100316 100530 100617 100533 100538 100654 100389 100360 100382
          100424 100488 100399 100357 100213 100071 100097 100321 100484 100596 100604 100490
          100748 100833 101432 100793 100967 101172 102697 102158 101161 100925 102151 102693
          100727 100607 100659 101392 100446 100350 100370 100470 100234 100077 100104 100327
          100496 100612 100624 100502 100791 101800 101041 100775 102778 103528 101716 101176
          103527 102791 101130 101706 101814 100672 100669 100936 100491 100386 100401 100514
          100252 100082 100108 100332 100567 100769 100923 100884 100759 101047 101220 101101
          100979 101198 100985 100913 101077 100831 100669 100664 100796 100470 100264 100086
          100109 100335 100569 100751 100860 100849 100747 100940 101032 100999 100922 101007
          100871 100853 100973 100774 100659 100656 100764 100478 100271 100088
        </DataArray>
        <DataArray type="Float32" Name="wetting pressure" NumberOfComponents="1" format="ascii">
          193227 193289 193349 193405 193452 193471 193460 193415 193340 193245 183418 183479
          183540 183598 183649 183668 183659 183613 183534 183437 173610 173670 173731 173792
          173853 173873 173867 173819 173734 173630 163804 163861 163922 163986 164069 164083
          164085 164034 163938 163824 154003 154151 154293 154348 154301 154297 154317 154261
          154146 154020 144226 144461 144674 147214 147131 142230 142346 144534 144505 146980
          147021 142180 142091 144502 144358 144216 134432 134656 137272 137383 132486 132373
          137536 137620 133314 132676 137754 137959 134580 134041 137948 137713 134033 134576
          137514 137394 132542 133275 137234 137137 132252 132353 134569 134412 124629 124852
          127474 127589 122696 122574 127768 128777 123113 122848 129755 130505 123788 123248
          130504 129768 123202 123779 128791 127650 122741 123009 127469 127364 122473 122586
          124777 124607 114823 115047 115282 117937 118091 113147 113022 118214 118387 113364
          113242 118366 118153 113175 113339 117999 117837 112927 113058 115185 114979 114801
          105014 105240 105474 108109 108218 103301 103199 108297 108390 103452 103374 108364
          108229 103305 103425 108132 108017 103109 103217 105383 105176 104993
        </DataArray>
        <DataArray type="Float32" Name="nonwetting pressure" NumberOfComponents="1" format="ascii">
          193727 193789 193849 193905 193952 193971 193960 193915 193840 193745 183918 183979
          184040 184098 184149 184168 184159 184113 184034 183937 174110 174170 174231 174292
          174353 174373 174367 174319 174234 174130 164304 164361 164422 164486 164569 164583
          164585 164534 164438 164324 154503 159151 159293 159348 154801 154797 154817 154761
          154646 154520 144726 144961 145174 147714 147631 142730 142846 145034 145005 147480
          147521 142681 142591 145002 144858 144716 134932 135156 137772 137883 132987 132873
          138050 142620 138314 133221 142754 142959 139580 139041 142948 142713 139033 139576
          142514 137914 133090 138275 137734 137637 132752 132853 135069 134912 125129 125352
          127974 128091 123196 123074 128327 129652 123687 123350 130602 131363 124506 123886
          131362 130615 123847 124498 129656 128211 123244 123589 127971 127864 122973 123086
          125277 125107 115323 115547 115782 118437 118593 113648 113522 118754 118983 113953
          113773 118961 118695 113709 113929 118502 118337 113427 113560 115685 115479 115301
          105514 105740 105974 108609 108718 103802 103699 108823 108979 104042 103894 108953
          108757 103827 104015 108633 108517 103609 103717 105883 105676 105493
        </DataArray>
        <DataArray type="Float32" Name="nonwetting potential" NumberOfComponents="1" format="ascii">
          57662.6 57724.3 57784 57840.6 57887.1 57906.1 57895.7 57850.7 57775 57680.5 62175.9 62237.4
          62297.4 62355.7 62406.5 62426 62416.9 62371 62292.3 62194.7 66690.3 66750.8 66811.3 66872.6
          66933.9 66953.1 66947.4 66899.5 66814.2 66710.2 71207 71264.3 71324.9 71389.6 71471.7 71486.4
          71488.5 71437.3 71340.9 71227.2 75728.8 80377.1 80518.5 80574.2 76026.3 76022.8 76042.8 75986.4
          75871.9 75745.3 80274.7 80509.3 80722.8 79681.7 79598.4 81859 81975.1 80581.9 80553.3 79447.5
          79488.8 81809.8 81720.3 80550.1 80406 80264 84802.6 85027.2 84062.2 84173.3 86438.1 86324.5
          84340.1 88910.5 91765.7 86672.1 89044.6 89249.7 93031.2 92492.4 89238.6 89003 92485 93027.3
          88804.3 84204 86541.7 91726.4 84024.2 83927.6 86203.9 86304.5 84939.5 84782.7 89322.7 89546
          88586.4 88703.6 90970.5 90848.2 88939.6 90264.9 91461.3 91123.7 91215 91975.9 92280.2 91660.1
          91975.2 91228.1 91621.1 92271.9 90269.2 88823.7 91018.2 91363.3 88583.5 88476.8 90747.5 90860.4
          89470.1 89300.4 93839 94063.4 94298.1 93372.1 93528.7 95744.6 95618.7 93689.7 93918 96049.4
          95869.7 93896.8 93630.5 95805.3 96025.3 93437 93272.1 95523.4 95656.7 94201.1 93995.5 93816.8
          98353.1 98578.3 98812.5 97866.9 97976.4 100221 100119 98081.3 98236.9 100461 100314 98211.4
          98014.7 100246 100434 97890.9 97774.8 100028 100137 98721.9 98514.3 98331.3
        </DataArray>
        <DataArray type="Float32" Name="capillary pressure" NumberOfComponents="1" format="ascii">
          500 500 500 500 500 500 500 500 500 500 500 500
          500 500 500 500 500 500 500 500 500 500 500 500
          500 500 500 500 500 500 500 500 500 500 500 500
          500 500 500 500 500 5000 5000 5000 500 500 500 500
          500 500 500 500 500 500.004 500.004 500.004 500.132 500 500 500.003
          500.003 500.443 500.003 500 500 500 500 500 500 500.002 500.323 500
          514.05 5000 5000 544.922 5000 5000 5000 5000 5000 5000 5000 5000
          5000 519.634 548.647 5000 500.008 500 500 500.458 500 500 500 500
          500 501.536 500 500 558.463 874.656 573.718 502.02 847.104 857.932 717.801 637.724
          858.005 846.895 644.855 719.136 865.063 560.916 502.983 580.22 501.834 500 500 500
          500 500 500 500 500 500 502.259 501.28 500 539.95 595.293 589.065
          531.31 595.784 542.274 533.274 589.114 502.912 500 500 501.649 500 500 500
          500 500 500 500 500.848 500.483 500 526.22 589.284 589.692 520.274 589.311
          527.945 521.656 589.705 501.08 500 500 500.603 500 500 500
        </DataArray>
        <DataArray type="Float32" Name="wetting-velocity" NumberOfComponents="3" format="ascii">
          -3.15626e-06 -3.53779e-08 0 -3.03644e-06 -2.45338e-08 0 -2.90702e-06 -4.01748e-08 0 -2.57571e-06 -1.25479e-07 0
          -1.63739e-06 -3.43682e-07 0 -2.15871e-07 -3.67078e-07 0 1.38355e-06 -4.32631e-07 0 3.01771e-06 -3.84449e-07 0
          4.25425e-06 -2.33823e-07 0 4.87318e-06 -7.5638e-08 0 -3.18622e-06 -1.26534e-07 0 -3.03884e-06 -6.69801e-08 0
          -2.95749e-06 -1.03108e-07 0 -2.72746e-06 -3.43214e-07 0 -1.75819e-06 -1.07975e-06 0 -2.60345e-07 -1.09069e-06 0
          1.37486e-06 -1.32633e-06 0 3.11711e-06 -1.17896e-06 0 4.40866e-06 -7.03359e-07 0 5.02791e-06 -2.25187e-07 0
          -3.25302e-06 -2.95845e-07 0 -3.02472e-06 -8.5506e-08 0 -3.04514e-06 -1.15048e-07 0 -3.06403e-06 -4.36842e-07 0
          -2.01113e-06 -1.99721e-06 0 -3.39161e-07 -1.75814e-06 0 1.33941e-06 -2.31578e-06 0 3.32919e-06 -2.05553e-06 0
          4.73114e-06 -1.17354e-06 0 5.33745e-06 -3.67786e-07 0 -3.37689e-06 -6.65663e-07 0 -2.94844e-06 -4.40618e-08 0
          -3.13316e-06 -5.39236e-08 0 -3.66854e-06 -2.20827e-07 0 -2.41884e-06 -3.36453e-06 0 -4.19629e-07 -2.2264e-06 0
          1.22617e-06 -3.5097e-06 0 3.68823e-06 -3.08753e-06 0 5.25253e-06 -1.62466e-06 0 5.79857e-06 -4.92839e-07 0
          -2.40645e-06 -2.12443e-06 0 -1.09489e-09 -2.19824e-09 0 -4.92655e-10 -3.72636e-09 0 9.99615e-11 -3.628e-09 0
          8.88157e-08 -4.25094e-06 0 -4.11745e-07 -2.08931e-06 0 9.08851e-07 -5.12998e-06 0 4.27171e-06 -4.37971e-06 0
          6.02849e-06 -1.99301e-06 0 6.3962e-06 -5.81358e-07 0 -9.93525e-06 -2.42845e-06 0 -1.12031e-05 -2.66947e-07 0
          -8.77489e-06 -9.53364e-07 0 9.57889e-07 -3.69225e-06 0 9.20254e-06 -4.3771e-07 0 1.07169e-05 -4.41887e-07 0
          2.12182e-06 -1.17154e-05 0 5.69558e-06 -2.16096e-06 0 -3.40478e-07 -9.10989e-07 0 -3.01943e-06 -3.85016e-06 0
          9.08567e-07 -1.02833e-05 0 -9.0232e-07 -1.57341e-05 0 -5.58913e-06 -1.65411e-06 0 6.85625e-06 -5.28123e-06 0
          7.15171e-06 -2.11761e-06 0 7.08575e-06 -6.07641e-07 0 -1.04506e-05 -1.13883e-06 0 -1.11505e-05 -5.72705e-07 0
          -1.10651e-05 -1.2257e-06 0 -1.20318e-05 -2.08982e-06 0 -1.08128e-05 -1.6008e-06 0 -1.12047e-05 -1.15888e-06 0
          -6.4754e-06 -1.02483e-05 0 -1.51514e-09 -1.18916e-08 0 -1.00165e-08 -1.33533e-08 0 -5.17464e-06 -2.14191e-06 0
          -1.69639e-09 -2.40067e-08 0 -9.69811e-10 -2.99622e-08 0 -2.67455e-09 -3.18598e-08 0 -6.32751e-09 -2.42988e-08 0
          1.23393e-09 -3.00871e-08 0 2.17117e-09 -2.4607e-08 0 6.50416e-09 -2.50551e-08 0 2.73104e-09 -3.19941e-08 0
          2.19255e-09 -1.3213e-08 0 6.32249e-06 -1.16844e-05 0 4.86039e-06 -2.75447e-06 0 1.11244e-08 -1.50857e-08 0
          1.11506e-05 -5.44786e-06 0 8.9594e-06 -4.34882e-06 0 9.28265e-06 -3.65929e-06 0 9.83429e-06 -4.41962e-06 0
          8.13668e-06 -1.9431e-06 0 7.75882e-06 -5.60252e-07 0 -1.0791e-05 -5.60161e-07 0 -1.12961e-05 -5.48899e-07 0
          -1.13798e-05 -1.11627e-06 0 -9.56727e-06 -1.97247e-06 0 -1.35044e-05 -1.7264e-06 0 -1.18477e-05 -9.28596e-07 0
          -3.92976e-06 8.96291e-07 0 -2.05172e-07 7.78438e-07 0 -4.80103e-06 6.41076e-06 0 -1.17821e-05 1.38852e-06 0
          -2.49965e-07 8.24336e-07 0 -9.75242e-08 5.84839e-07 0 -3.72283e-07 2.71392e-06 0 -7.93559e-07 4.91034e-06 0
          9.57846e-08 5.85163e-07 0 2.46954e-07 8.18065e-07 0 9.12502e-07 5.10221e-06 0 4.18765e-07 2.71341e-06 0
          2.18549e-07 8.33097e-07 0 3.82125e-06 -2.08048e-07 0 1.13915e-05 1.38749e-07 0 4.40673e-06 5.79264e-06 0
          8.89097e-06 -4.2742e-06 0 9.82912e-06 -3.09694e-06 0 1.04474e-05 -2.45397e-06 0 1.31318e-05 -3.46944e-06 0
          8.98782e-06 -1.54194e-06 0 8.33743e-06 -4.47279e-07 0 -1.10051e-05 -2.64387e-07 0 -1.14787e-05 -3.55358e-07 0
          -1.24726e-05 -5.44937e-07 0 -1.42456e-05 1.54684e-06 0 -1.11099e-05 9.41109e-06 0 -9.30976e-06 6.13351e-06 0
          -1.26319e-05 1.77628e-06 0 -5.08199e-06 7.26827e-06 0 -1.33548e-06 3.97058e-06 0 -1.06006e-06 2.99244e-06 0
          -4.42356e-06 5.34056e-06 0 1.95358e-06 3.99901e-06 0 6.09929e-06 7.55351e-06 0 5.44475e-06 5.44978e-06 0
          1.87014e-06 3.04404e-06 0 1.21479e-05 8.31324e-06 0 1.45799e-05 4.40219e-07 0 1.29416e-05 9.85028e-07 0
          1.02364e-05 5.45181e-06 0 1.17477e-05 -1.55642e-06 0 9.60795e-06 -9.5249e-07 0 8.75344e-06 -2.8428e-07 0
          -1.11009e-05 -7.80641e-08 0 -1.14838e-05 -1.13412e-07 0 -1.18872e-05 -8.82783e-08 0 -1.14371e-05 1.26908e-06 0
          -8.23467e-06 3.45632e-06 0 -7.91212e-06 1.10893e-06 0 -1.10849e-05 4.66322e-07 0 -3.83728e-06 3.24063e-06 0
          -7.75104e-07 1.6698e-06 0 -6.39796e-07 5.35467e-07 0 -3.69052e-06 1.09472e-06 0 1.63227e-06 1.70534e-06 0
          4.81259e-06 3.26883e-06 0 4.68513e-06 1.10122e-06 0 1.5257e-06 5.48743e-07 0 9.07141e-06 3.07072e-06 0
          1.17247e-05 7.96227e-07 0 1.13514e-05 3.07666e-07 0 8.7422e-06 9.81037e-07 0 1.12044e-05 -4.11132e-07 0
          9.76533e-06 -3.0839e-07 0 8.95581e-06 -9.63672e-08 0
        </DataArray>
        <DataArray type="Float32" Name="non-wetting-velocity" NumberOfComponents="3" format="ascii">
          0 -4.52778e-37 0 0 -3.27995e-37 0 0 -3.93532e-37 0 0 -1.62425e-36 0
          0 -2.55582e-37 0 0 0 0 0 0 0 0 0 0
          0 0 0 0 0 0 0 -1.82878e-36 0 0 -1.30978e-36 0
          -1.30938e-38 -5.82276e-37 0 -1.19135e-38 -2.04035e-36 0 0 -2.55582e-37 0 0 0 0
          0 0 0 0 0 0 0 0 0 0 0 0
          -1.71895e-38 -2.39092e-36 0 0 -1.35642e-36 0 0 -1.98512e-37 0 0 -4.16094e-37 0
          0 0 0 0 0 0 0 0 0 0 0 0
          0 0 0 0 0 0 0 -7.49296e-36 0 0 -3.74631e-37 0
          0 0 0 0 0 0 0 0 0 0 0 0
          0 0 0 0 0 0 0 0 0 0 0 0
          -6.89291e-38 -6.4781e-36 0 0 0 0 0 0 0 0 -1.12405e-22 0
          0 0 0 0 0 0 0 -6.08532e-18 0 0 -3.83664e-37 0
          0 -1.5711e-38 0 0 0 0 0 0 0 0 0 0
          -2.65445e-15 -9.03971e-19 0 8.43317e-20 -3.33603e-13 0 3.18824e-19 -7.83152e-18 0 8.44293e-15 -7.8313e-18 0
          3.13327e-15 -3.92517e-07 0 4.98078e-19 0 0 -2.77922e-19 0 0 -8.03724e-20 -1.21043e-17 0
          2.18745e-20 -1.27e-11 0 -5.50727e-14 -1.05261e-06 0 -2.45095e-13 -6.04466e-18 0 9.50111e-14 -3.25935e-17 0
          0 -1.5711e-38 0 0 0 0 0 0 0 -3.86546e-25 0 0
          -4.42807e-20 -3.16053e-23 0 -1.38542e-08 -4.83253e-12 0 -5.22093e-07 -5.1892e-10 0 -1.2122e-13 -8.41434e-23 0
          -1.38542e-08 -9.83107e-06 0 0 0 0 0 0 0 -5.22093e-07 -2.10275e-05 0
          0 0 0 0 0 0 0 0 0 0 0 0
          0 0 0 0 0 0 0 0 0 0 0 0
          0 0 0 3.96679e-08 -1.22666e-05 0 6.5125e-07 -2.71249e-05 0 0 0 0
          3.96679e-08 -1.38504e-11 0 1.37651e-18 -2.47589e-23 0 3.05508e-13 -9.08159e-23 0 6.5125e-07 -8.91951e-10 0
          2.29103e-25 0 0 0 0 0 0 0 0 -1.55677e-24 0 0
          -1.33547e-11 -1.23325e-22 0 -1.02431e-06 -5.14087e-10 0 -3.9646e-11 -7.50817e-23 0 -3.4536e-24 -5.4993e-23 0
          -3.6509e-05 -1.15909e-05 0 -8.57063e-05 -5.79686e-05 0 -5.44898e-06 -5.79717e-05 0 -2.52203e-06 -1.935e-09 0
          -8.97985e-05 -2.54238e-05 0 -3.9537e-05 -2.46466e-05 0 -1.47567e-05 -8.77607e-05 0 -1.7951e-05 -4.7549e-05 0
          3.88903e-05 -2.41376e-05 0 8.90563e-05 -2.32855e-05 0 2.02839e-05 -4.99684e-05 0 1.6586e-05 -8.71306e-05 0
          8.80574e-05 -5.20766e-05 0 3.90025e-05 -1.59172e-05 0 3.08521e-06 -6.33701e-09 0 7.05037e-06 -5.20841e-05 0
          1.15086e-06 -8.781e-10 0 2.06549e-11 -1.33757e-22 0 5.3831e-24 -5.53347e-23 0 1.31024e-10 -1.66514e-22 0
          1.39472e-24 0 0 0 0 0 0 0 0 0 0 0
          -1.18523e-23 0 0 -5.66065e-11 -8.10456e-22 0 -2.59072e-07 -3.46326e-09 0 -1.0356e-07 -3.76636e-10 0
          -8.30632e-12 -5.68454e-24 0 -2.53824e-06 -2.51844e-05 0 -2.09909e-06 -9.67894e-05 0 -1.48933e-06 -6.61612e-05 0
          -1.77132e-06 -4.92851e-06 0 2.82351e-06 -9.68155e-05 0 3.00412e-06 -3.02725e-05 0 2.16264e-06 -5.80689e-06 0
          2.19574e-06 -6.63146e-05 0 3.60885e-07 -8.13289e-09 0 1.27481e-10 -7.21485e-21 0 1.87936e-11 -4.34101e-23 0
          1.4535e-07 -7.99542e-10 0 1.11434e-22 0 0 0 0 0 0 0 0
          0 0 0 0 0 0 -5.43103e-27 0 0 -2.10161e-12 -4.0377e-25 0
          -5.27857e-08 -1.0124e-10 0 -2.23189e-08 -1.59595e-11 0 -3.6503e-13 -4.96578e-26 0 -1.5549e-06 -2.82003e-06 0
          -1.31218e-06 -6.57543e-05 0 -1.29399e-06 -6.75148e-05 0 -1.5143e-06 -9.5074e-07 0 2.06778e-06 -6.5762e-05 0
          1.95238e-06 -3.35885e-06 0 1.92553e-06 -1.14162e-06 0 2.09166e-06 -6.75165e-05 0 7.45348e-08 -2.07243e-10 0
          4.60358e-12 -1.88963e-24 0 7.51299e-13 -1.17322e-25 0 3.18574e-08 -3.10076e-11 0 2.53439e-26 0 0
          0 0 0 0 0 0
        </DataArray>
        <DataArray type="Float32" Name="wetting saturation" NumberOfComponents="1" format="ascii">
          1 1 1 1 1 1 1 1 1 1 1 1
          1 1 1 1 1 1 1 1 1 1 1 1
          1 1 1 1 1 1 1 1 1 1 1 1
          1 1 1 1 1 1 1 1 1 1 1 1
          1 1 1 1 1 0.999977 0.999977 0.999977 0.999148 1 1 0.999979
          0.999979 0.997189 0.999979 1 1 1 1 1 1 0.999985 0.998023 1
          0.918856 1 1 0.771777 1 1 1 1 1 1 1 1
          1 0.889341 0.756226 1 0.999951 1 1 0.997205 1 1 1 1
          1 0.990764 1 1 0.717273 0.186696 0.6609 0.987785 0.205503 0.197847 0.337727 0.481468
          0.197797 0.205657 0.465619 0.335848 0.192971 0.707929 0.98208 0.639051 0.988991 1 1 0.999999
          1 1 1 1 1 0.999999 0.986547 0.992352 1 0.794028 0.592452 0.611533
          0.83344 0.590987 0.783846 0.824258 0.611379 0.982701 0.999998 1 0.990157 1 1 1
          1 1 1 1 0.994927 0.997104 1 0.857862 0.610851 0.609585 0.887606 0.610768
          0.849476 0.880568 0.609546 0.993542 1 1 0.996388 1 1 1
        </DataArray>
        <DataArray type="Float32" Name="nonwetting saturation" NumberOfComponents="1" format="ascii">
          4.34652e-13 -1.08802e-14 3.84626e-12 1.00123e-11 1.07164e-11 7.44704e-12 1.25933e-12 -4.51439e-12 -1.09286e-11 -1.42972e-11 8.8074e-12 7.90046e-12
          8.39007e-12 1.3475e-11 7.26963e-12 -4.62386e-12 -1.57585e-11 -1.67752e-11 -2.07001e-11 -2.30356e-11 1.27577e-11 1.13827e-11 6.54621e-12 8.53939e-12
          -1.71108e-12 -1.75457e-11 -3.13709e-11 -2.49674e-11 -2.2506e-11 -2.11153e-11 1.15262e-11 8.25096e-12 2.40707e-12 -1.08638e-11 -1.92506e-11 -2.28544e-11
          -3.83729e-11 -2.75284e-11 -2.24469e-11 -1.80571e-11 2.13721e-11 3.55271e-15 -1.24345e-14 -6.21725e-15 -2.15605e-11 -2.09719e-11 -4.09273e-11 -2.65459e-11
          -2.15927e-11 -1.49605e-11 4.53304e-13 -1.86517e-14 -1.04494e-12 2.27971e-05 2.27969e-05 2.27969e-05 0.000851517 -9.28937e-11 -1.77811e-11 2.08744e-05
          2.08838e-05 0.00281084 2.08745e-05 1.20267e-11 2.95997e-12 -1.35907e-11 -1.02864e-11 -1.89375e-11 2.8794e-07 1.50173e-05 0.00197742 2.88072e-07
          0.0811441 -4.59632e-14 -2.93099e-14 0.228223 -8.50431e-14 -5.04041e-14 -2.06501e-14 -2.35367e-14 -8.37108e-14 -5.15143e-14 -1.57652e-14 -1.84297e-14
          -2.53131e-14 0.110659 0.243774 -1.73195e-14 4.90255e-05 2.64716e-07 2.65075e-07 0.00279471 -2.79006e-11 -8.44658e-12 -1.84242e-11 -1.79412e-11
          4.70248e-07 0.009236 4.89608e-07 4.3647e-07 0.282727 0.813304 0.3391 0.0122145 0.794497 0.802153 0.662273 0.518532
          0.802203 0.794343 0.534381 0.664152 0.807029 0.292071 0.0179195 0.360949 0.011009 4.92053e-07 4.36807e-07 6.44264e-07
          -1.24694e-11 -7.93055e-12 -1.64748e-11 -1.90226e-11 -3.2123e-11 1.06638e-06 0.0134535 0.00764827 2.0158e-07 0.205973 0.407548 0.388467
          0.16656 0.409013 0.216154 0.175742 0.388621 0.0172994 2.25051e-06 3.99858e-07 0.00984272 -2.58613e-11 -8.58735e-12 -7.53086e-12
          -1.62548e-11 -2.31279e-11 -4.85791e-11 8.15245e-08 0.00507347 0.00289586 4.22799e-08 0.142138 0.389149 0.390415 0.112394 0.389232
          0.150524 0.119432 0.390454 0.00645834 1.39462e-07 5.6317e-08 0.00361199 -6.18883e-11 -2.57572e-14 4.12004e-13
        </DataArray>
      </CellData>
      <Points>
        <DataArray type="Float32" Name="Coordinates" NumberOfComponents="3" format="ascii">
          0 0 0 2 0 0 0 1 0 2 1 0
          4 0 0 4 1 0 6 0 0 6 1 0
          8 0 0 8 1 0 10 0 0 10 1 0
          12 0 0 12 1 0 14 0 0 14 1 0
          16 0 0 16 1 0 18 0 0 18 1 0
          20 0 0 20 1 0 0 2 0 2 2 0
          4 2 0 6 2 0 8 2 0 10 2 0
          12 2 0 14 2 0 16 2 0 18 2 0
          20 2 0 0 3 0 2 3 0 4 3 0
          6 3 0 8 3 0 10 3 0 12 3 0
          14 3 0 16 3 0 18 3 0 20 3 0
          0 4 0 2 4 0 4 4 0 6 4 0
          8 4 0 10 4 0 12 4 0 14 4 0
          16 4 0 18 4 0 20 4 0 0 5 0
          2 5 0 4 5 0 6 5 0 8 5 0
          10 5 0 12 5 0 14 5 0 16 5 0
          18 5 0 20 5 0 0 6 0 2 6 0
          4 6 0 6 6 0 7 5 0 6 5.5 0
          7 5.5 0 8 5.5 0 7 6 0 8 6 0
          10 6 0 12 6 0 13 5 0 12 5.5 0
          13 5.5 0 14 5.5 0 13 6 0 14 6 0
          16 6 0 18 6 0 20 6 0 0 7 0
          2 7 0 4 7 0 5 6 0 4 6.5 0
          5 6.5 0 6 6.5 0 5 7 0 6 7 0
          7 6.5 0 8 6.5 0 7 7 0 8 7 0
          9 6 0 9 6.5 0 10 6.5 0 9 7 0
          10 7 0 11 6 0 11 6.5 0 12 6.5 0
          11 7 0 12 7 0 13 6.5 0 14 6.5 0
          13 7 0 14 7 0 15 6 0 15 6.5 0
          16 6.5 0 15 7 0 16 7 0 18 7 0
          20 7 0 0 8 0 2 8 0 4 8 0
          4 7.5 0 5 7.5 0 6 7.5 0 5 8 0
          6 8 0 7 7.5 0 8 7.5 0 7 8 0
          8 8 0 9 7.5 0 10 7.5 0 9 8 0
          10 8 0 11 7.5 0 12 7.5 0 11 8 0
          12 8 0 13 7.5 0 14 7.5 0 13 8 0
          14 8 0 15 7.5 0 16 7.5 0 15 8 0
          16 8 0 18 8 0 20 8 0 0 9 0
          2 9 0 4 9 0 6 9 0 6 8.5 0
          7 8.5 0 8 8.5 0 7 9 0 8 9 0
          9 8.5 0 10 8.5 0 9 9 0 10 9 0
          11 8.5 0 12 8.5 0 11 9 0 12 9 0
          13 8.5 0 14 8.5 0 13 9 0 14 9 0
          16 9 0 18 9 0 20 9 0 0 10 0
          2 10 0 4 10 0 6 10 0 6 9.5 0
          7 9.5 0 8 9.5 0 7 10 0 8 10 0
          9 9.5 0 10 9.5 0 9 10 0 10 10 0
          11 9.5 0 12 9.5 0 11 10 0 12 10 0
          13 9.5 0 14 9.5 0 13 10 0 14 10 0
          16 10 0 18 10 0 20 10 0
        </DataArray>
      </Points>
      <Cells>
        <DataArray type="Int32" Name="connectivity" NumberOfComponents="1" format="ascii">
          0 1 3 2 1 4 5 3 4 6 7 5
          6 8 9 7 8 10 11 9 10 12 13 11
          12 14 15 13 14 16 17 15 16 18 19 17
          18 20 21 19 2 3 23 22 3 5 24 23
          5 7 25 24 7 9 26 25 9 11 27 26
          11 13 28 27 13 15 29 28 15 17 30 29
          17 19 31 30 19 21 32 31 22 23 34 33
          23 24 35 34 24 25 36 35 25 26 37 36
          26 27 38 37 27 28 39 38 28 29 40 39
          29 30 41 40 30 31 42 41 31 32 43 42
          33 34 45 44 34 35 46 45 35 36 47 46
          36 37 48 47 37 38 49 48 38 39 50 49
          39 40 51 50 40 41 52 51 41 42 53 52
          42 43 54 53 44 45 56 55 45 46 57 56
          46 47 58 57 47 48 59 58 48 49 60 59
          49 50 61 60 50 51 62 61 51 52 63 62
          52 53 64 63 53 54 65 64 55 56 67 66
          56 57 68 67 57 58 69 68 58 70 72 71
          70 59 73 72 72 73 75 74 71 72 74 69
          59 60 76 75 60 61 77 76 61 78 80 79
          78 62 81 80 80 81 83 82 79 80 82 77
          62 63 84 83 63 64 85 84 64 65 86 85
          66 67 88 87 67 68 89 88 68 90 92 91
          90 69 93 92 92 93 95 94 91 92 94 89
          69 74 96 93 74 75 97 96 96 97 99 98
          93 96 98 95 75 100 101 97 100 76 102 101
          101 102 104 103 97 101 103 99 76 105 106 102
          105 77 107 106 106 107 109 108 102 106 108 104
          77 82 110 107 82 83 111 110 110 111 113 112
          107 110 112 109 83 114 115 111 114 84 116 115
          115 116 118 117 111 115 117 113 84 85 119 118
          85 86 120 119 87 88 122 121 88 89 123 122
          89 94 125 124 94 95 126 125 125 126 128 127
          124 125 127 123 95 98 129 126 98 99 130 129
          129 130 132 131 126 129 131 128 99 103 133 130
          103 104 134 133 133 134 136 135 130 133 135 132
          104 108 137 134 108 109 138 137 137 138 140 139
          134 137 139 136 109 112 141 138 112 113 142 141
          141 142 144 143 138 141 143 140 113 117 145 142
          117 118 146 145 145 146 148 147 142 145 147 144
          118 119 149 148 119 120 150 149 121 122 152 151
          122 123 153 152 123 128 154 153 128 131 156 155
          131 132 157 156 156 157 159 158 155 156 158 154
          132 135 160 157 135 136 161 160 160 161 163 162
          157 160 162 159 136 139 164 161 139 140 165 164
          164 165 167 166 161 164 166 163 140 143 168 165
          143 144 169 168 168 169 171 170 165 168 170 167
          144 148 172 171 148 149 173 172 149 150 174 173
          151 152 176 175 152 153 177 176 153 154 178 177
          154 158 180 179 158 159 181 180 180 181 183 182
          179 180 182 178 159 162 184 181 162 163 185 184
          184 185 187 186 181 184 186 183 163 166 188 185
          166 167 189 188 188 189 191 190 185 188 190 187
          167 170 192 189 170 171 193 192 192 193 195 194
          189 192 194 191 171 172 196 195 172 173 197 196
          173 174 198 197
        </DataArray>
        <DataArray type="Int32" Name="offsets" NumberOfComponents="1" format="ascii">
          4 8 12 16 20 24 28 32 36 40 44 48
          52 56 60 64 68 72 76 80 84 88 92 96
          100 104 108 112 116 120 124 128 132 136 140 144
          148 152 156 160 164 168 172 176 180 184 188 192
          196 200 204 208 212 216 220 224 228 232 236 240
          244 248 252 256 260 264 268 272 276 280 284 288
          292 296 300 304 308 312 316 320 324 328 332 336
          340 344 348 352 356 360 364 368 372 376 380 384
          388 392 396 400 404 408 412 416 420 424 428 432
          436 440 444 448 452 456 460 464 468 472 476 480
          484 488 492 496 500 504 508 512 516 520 524 528
          532 536 540 544 548 552 556 560 564 568 572 576
          580 584 588 592 596 600 604 608 612 616 620 624
          628 632 636 640 644 648 652 656 660 664
        </DataArray>
        <DataArray type="UInt8" Name="types" NumberOfComponents="1" format="ascii">
          9 9 9 9 9 9 9 9 9 9 9 9
          9 9 9 9 9 9 9 9 9 9 9 9
          9 9 9 9 9 9 9 9 9 9 9 9
          9 9 9 9 9 9 9 9 9 9 9 9
          9 9 9 9 9 9 9 9 9 9 9 9
          9 9 9 9 9 9 9 9 9 9 9 9
          9 9 9 9 9 9 9 9 9 9 9 9
          9 9 9 9 9 9 9 9 9 9 9 9
          9 9 9 9 9 9 9 9 9 9 9 9
          9 9 9 9 9 9 9 9 9 9 9 9
          9 9 9 9 9 9 9 9 9 9 9 9
          9 9 9 9 9 9 9 9 9 9 9 9
          9 9 9 9 9 9 9 9 9 9 9 9
          9 9 9 9 9 9 9 9 9 9
        </DataArray>
      </Cells>
    </Piece>
  </UnstructuredGrid>
</VTKFile>
