<?xml version="1.0"?>
<VTKFile type="UnstructuredGrid" version="0.1" byte_order="LittleEndian">
  <UnstructuredGrid>
    <Piece NumberOfCells="1000" NumberOfPoints="1331">
      <CellData Scalars="wetting pressure">
        <DataArray type="Float32" Name="wetting pressure" NumberOfComponents="1" format="ascii">
          265697 271196 273029 272274 269377 264462 257494 248290 236399 220773 265714 271252
          273137 272455 269633 264746 257753 248480 236509 220808 265741 271342 273322 272781
          270139 265314 258265 248842 236710 220871 265764 271424 273505 273154 270872 266126
          259003 249310 236943 220940 265769 271447 273569 273316 271235 266724 259881 249678
          237076 220973 265748 271379 273441 273098 270915 266071 258920 249234 236891 220922
          265707 271244 273171 272600 269957 265108 258060 248671 236598 220832 265660 271094
          272887 272132 269268 264367 257399 248194 236324 220744 265622 270973 272666 271795
          268820 263883 256961 247864 236126 220679 265601 270906 272549 271622 268599 263646
          256745 247698 236024 220645 262146 265000 265700 264430 261332 256423 249666 240979
          230216 217226 262164 265062 265823 264640 261640 256764 249971 241199 230341 217266
          262194 265163 266035 265032 262287 257489 250605 241638 230577 217338 262220 265257
          266250 265487 263201 258693 251627 242279 230873 217422 262226 265284 266329 265706
          263835 259395 252869 243080 231088 217468 262204 265209 266179 265407 263133 258633
          251548 242203 230820 217403 262159 265061 265878 264838 262085 257276 250397 241464
          230462 217298 262109 264898 265562 264303 261258 256371 249605 240904 230150 217200
          262067 264767 265321 263927 260746 255815 249108 240534 229931 217128 262045 264696
          265194 263737 260500 255551 248868 240352 229820 217091 260391 260898 260218 258204
          254791 249891 243465 235526 226134 215478 260413 260970 260365 258463 255183 250319
          243837 235789 226281 215525 260447 261089 260622 258960 256073 251273 244640 236326
          226563 215611 260478 261201 260887 259561 257448 252988 246017 237146 226928 215712
          260485 261234 260987 259840 258244 253974 247757 238216 227209 215771 260460 261150
          260811 259473 257379 252961 245950 237072 226875 215693 260410 260981 260454 258755
          255866 251064 244431 236147 226444 215569 260353 260795 260087 258104 254778 249905
          243452 235476 226079 215455 260307 260648 259811 257661 254157 249234 242863 235047
          225829 215374 260282 260569 259667 257442 253870 248925 242586 234839 225703 215333
          259269 257910 255925 253119 249347 244457 238406 231262 223168 214364 259293 257993
          256095 253424 249815 244967 238841 231564 223336 214416 259332 258130 256395 254015
          250896 246128 239784 232181 223656 214513 259368 258260 256705 254725 252546 248313
          241396 233112 224068 214627 259377 258300 256821 255040 253401 249235 243274 234257
          224377 214693 259349 258206 256623 254630 252469 248463 241366 233043 224014 214607
          259293 258015 256216 253796 250684 245946 239579 231996 223530 214469 259229 257805
          255796 253037 249382 244530 238432 231231 223119 214342 259178 257640 255482 252528
          248656 243742 237752 230743 222838 214251 259150 257550 255319 252278 248324 243384
          237435 230507 222697 214205 258396 255467 252282 248697 244554 239674 234009 227646
          220746 213498 258423 255560 252472 249036 245075 240243 234489 227977 220928 213555
          258466 255712 252804 249688 246264 241535 235520 228644 221274 213660 258506 255856
          253145 250459 248019 243963 237243 229623 221710 213781 258516 255900 253270 250793
          248894 244793 239124 230744 222022 213849 258486 255798 253057 250359 247939 244117
          237216 229552 221653 213760 258424 255589 252612 249455 246039 241345 235306 228449
          221140 213613 258354 255357 252149 248619 244608 239773 234049 227618 220695 213475
          258297 255174 251801 248054 243802 238896 233297 227083 220388 213376 258266 255075
          251620 247776 243432 238498 232946 226823 220233 213325 257592 253191 248848 244495
          239980 235110 229829 224238 218488 212702 257622 253292 249054 244860 240537 235720
          230343 224591 218683 212763 257670 253457 249412 245555 241785 237086 231430 225291
          219047 212873 257712 253612 249775 246359 243569 239590 233190 226284 219494 212998
          257724 253660 249908 246703 244450 240386 235037 227345 219797 213066 257691 253551
          249682 246252 243482 239738 233157 226207 219433 212976 257624 253325 249207 245305
          241543 236878 231196 225080 218903 212822 257548 253074 248707 244412 240034 235212
          229868 224204 218432 212676 257486 252874 248328 243799 239165 234266 229059 223628
          218101 212570 257452 252765 248130 243495 238762 233833 228677 223347 217934 212515
          256721 250756 245218 240090 235207 230346 225449 220635 216074 211839 256754 250866
          245443 240486 235806 231003 226001 221013 216283 211904 256806 251047 245830 241227
          237116 232448 227149 221752 216667 212021 256853 251214 246216 242065 238919 235024
          228949 222764 217128 212151 256866 251266 246357 242421 239811 235786 230756 223765
          217423 212218 256830 251150 246118 241951 238823 235145 228900 222678 217061 212127
          256758 250907 245613 240963 236858 232214 226893 221524 216513 211966 256676 250635
          245073 240008 235267 230455 225488 220596 216012 211811 256608 250416 244660 239341
          234328 229435 224616 219977 215657 211696 256570 250297 244442 239008 233887 228962
          224201 219672 215476 211637 255604 247784 240953 235046 229812 224963 220433 216401
          213125 210730 255640 247907 241204 235490 230485 225701 221049 216820 213355 210801
          255698 248107 241633 236313 231932 227305 222317 217630 213775 210928 255749 248291
          242057 237216 233814 230079 224242 218708 214268 211068 255764 248350 242213 237602
          234755 230779 226033 219687 214569 211138 255726 248225 241957 237101 233706 230075
          224158 218610 214197 211042 255648 247963 241412 236046 231670 227038 222035 217384
          213610 210871 255558 247664 240817 234991 229922 225117 220501 216375 213067 210702
          255483 247423 240358 234247 228871 223983 219537 215695 212679 210577 255442 247292
          240117 233874 228377 223456 219078 215360 212481 210513 253856 243703 235512 228887
          223363 218524 214305 210994 209068 208990 253896 243840 235799 229407 224172 219403
          215024 211472 209326 209069 253960 244065 236291 230379 225944 221340 216526 212407
          209800 209212 254017 244272 236772 231417 228081 224447 218810 213660 210363 209369
          254034 244340 236954 231868 229182 225258 220713 214744 210704 209449 253994 244206
          236676 231312 227984 224315 218726 213558 210288 209342 253910 243920 236075 230141
          225759 221084 216240 212152 209628 209151 253811 243591 235404 228906 223618 218806
          214453 211006 209023 208965 253729 243324 234888 228046 222370 217484 213353 210245
          208595 208829 253684 243180 234618 227622 221800 216881 212835 209873 208379 208759
          250309 237524 228219 221108 215419 210586 206550 203727 202906 205449 250353 237674
          228539 221716 216430 211661 207390 204265 203189 205536 250422 237919 229098 222906
          218990 214304 209261 205354 203721 205692 250484 238147 229644 224156 221880 218196
          212538 206927 204376 205869 250503 238224 229854 224700 223306 219519 214954 208516
          204811 205964 250461 238083 229555 224073 221815 218165 212470 206827 204301 205842
          250372 237777 228898 222748 219184 214146 208992 205099 203546 205630 250266 237422
          228146 221236 215946 211083 206814 203788 202879 205429 250180 237135 227579 220246
          214403 209511 205562 202951 202417 205283 250132 236981 227286 219774 213750 208831
          204992 202548 202186 205209
        </DataArray>
        <DataArray type="Float32" Name="nonwetting pressure" NumberOfComponents="1" format="ascii">
          265697 271196 273029 272274 269377 264462 257494 248290 236399 220773 265714 271252
          273137 272455 269633 264746 257753 248480 236509 220808 265741 271342 273322 272781
          270139 265314 258265 248842 236710 220871 265764 271424 273505 273154 270872 266126
          259003 249310 236943 220940 265769 271447 273569 273316 271623 266845 259881 249678
          237076 220973 265748 271379 273441 273098 270917 266071 258920 249234 236891 220922
          265707 271244 273171 272600 269957 265108 258060 248671 236598 220832 265660 271094
          272887 272132 269268 264367 257399 248194 236324 220744 265622 270973 272666 271795
          268820 263883 256961 247864 236126 220679 265601 270906 272549 271622 268599 263646
          256745 247698 236024 220645 262146 265000 265700 264430 261332 256423 249666 240979
          230216 217226 262164 265062 265823 264640 261640 256764 249971 241199 230341 217266
          262194 265163 266035 265032 262287 257489 250605 241638 230577 217338 262220 265257
          266250 265487 263264 258693 251627 242279 230873 217422 262226 265284 266329 265706
          264461 259665 252966 243080 231088 217468 262204 265209 266179 265407 263199 258633
          251548 242203 230820 217403 262159 265061 265878 264838 262085 257276 250397 241464
          230462 217298 262109 264898 265562 264303 261258 256371 249605 240904 230150 217200
          262067 264767 265321 263927 260746 255815 249108 240534 229931 217128 262045 264696
          265194 263737 260500 255551 248868 240352 229820 217091 260391 260898 260218 258204
          254791 249891 243465 235526 226134 215478 260413 260970 260365 258463 255183 250319
          243837 235789 226281 215525 260447 261089 260622 258960 256073 251273 244640 236326
          226563 215611 260478 261201 260887 259561 257559 252988 246017 237146 226928 215712
          260485 261234 260987 259840 258942 254298 247889 238216 227209 215771 260460 261150
          260811 259473 257495 252961 245950 237072 226875 215693 260410 260981 260454 258755
          255866 251064 244431 236147 226444 215569 260353 260795 260087 258104 254778 249905
          243452 235476 226079 215455 260307 260648 259811 257661 254157 249234 242863 235047
          225829 215374 260282 260569 259667 257442 253870 248925 242586 234839 225703 215333
          259269 257910 255925 253119 249347 244457 238406 231262 223168 214364 259293 257993
          256095 253424 249815 244967 238841 231564 223336 214416 259332 258130 256395 254015
          250896 246128 239784 232181 223656 214513 259368 258260 256705 254725 252676 248313
          241396 233112 224068 214627 259377 258300 256821 255040 254113 249576 243414 234257
          224377 214693 259349 258206 256623 254630 252606 248474 241366 233043 224014 214607
          259293 258015 256216 253796 250684 245946 239579 231996 223530 214469 259229 257805
          255796 253037 249382 244530 238432 231231 223119 214342 259178 257640 255482 252528
          248656 243742 237752 230743 222838 214251 259150 257550 255319 252278 248324 243384
          237435 230507 222697 214205 258396 255467 252282 248697 244554 239674 234009 227646
          220746 213498 258423 255560 252472 249036 245075 240243 234489 227977 220928 213555
          258466 255712 252804 249688 246264 241535 235520 228644 221274 213660 258506 255856
          253145 250459 248152 243970 237243 229623 221710 213781 258516 255900 253270 250793
          249604 245137 239263 230744 222022 213849 258486 255798 253057 250359 248079 244133
          237216 229552 221653 213760 258424 255589 252612 249455 246039 241345 235306 228449
          221140 213613 258354 255357 252149 248619 244608 239773 234049 227618 220695 213475
          258297 255174 251801 248054 243802 238896 233297 227083 220388 213376 258266 255075
          251620 247776 243432 238498 232946 226823 220233 213325 257592 253191 248848 244495
          239980 235110 229829 224238 218488 212702 257622 253292 249054 244860 240537 235720
          230343 224591 218683 212763 257670 253457 249412 245555 241785 237086 231430 225291
          219047 212873 257712 253612 249775 246359 243700 239597 233190 226284 219494 212998
          257724 253660 249908 246703 245156 240731 235171 227345 219797 213066 257691 253551
          249682 246252 243621 239756 233157 226207 219433 212976 257624 253325 249207 245305
          241543 236878 231196 225080 218903 212822 257548 253074 248707 244412 240034 235212
          229868 224204 218432 212676 257486 252874 248328 243799 239165 234266 229059 223628
          218101 212570 257452 252765 248130 243495 238762 233833 228677 223347 217934 212515
          256721 250756 245218 240090 235207 230346 225449 220635 216074 211839 256754 250866
          245443 240486 235806 231003 226001 221013 216283 211904 256806 251047 245830 241227
          237116 232448 227149 221752 216667 212021 256853 251214 246216 242065 239049 235032
          228949 222764 217128 212151 256866 251266 246357 242421 240513 236131 230885 223765
          217423 212218 256830 251150 246118 241951 238959 235165 228900 222678 217061 212127
          256758 250907 245613 240963 236858 232214 226893 221524 216513 211966 256676 250635
          245073 240008 235267 230455 225488 220596 216012 211811 256608 250416 244660 239341
          234328 229435 224616 219977 215657 211696 256570 250297 244442 239008 233887 228962
          224201 219672 215476 211637 255604 247784 240953 235046 229812 224963 220433 216401
          213125 210730 255640 247907 241204 235490 230485 225701 221049 216820 213355 210801
          255698 248107 241633 236313 231932 227305 222317 217630 213775 210928 255749 248291
          242057 237216 233945 230094 224242 218708 214268 211068 255764 248350 242213 237602
          235459 231126 226158 219687 214569 211138 255726 248225 241957 237101 233844 230104
          224158 218610 214197 211042 255648 247963 241412 236046 231670 227038 222035 217384
          213610 210871 255558 247664 240817 234991 229922 225117 220501 216375 213067 210702
          255483 247423 240358 234247 228871 223983 219537 215695 212679 210577 255442 247292
          240117 233874 228377 223456 219078 215360 212481 210513 253856 243703 235512 228887
          223363 218524 214305 210994 209068 208990 253896 243840 235799 229407 224172 219403
          215024 211472 209326 209069 253960 244065 236291 230379 225944 221340 216526 212407
          209800 209212 254017 244272 236772 231417 228226 224484 218810 213660 210363 209369
          254034 244340 236954 231868 229909 225620 220840 214744 210704 209449 253994 244206
          236676 231312 228136 224360 218726 213558 210288 209342 253910 243920 236075 230141
          225759 221084 216240 212152 209628 209151 253811 243591 235404 228906 223618 218806
          214453 211006 209023 208965 253729 243324 234888 228046 222370 217484 213353 210245
          208595 208829 253684 243180 234618 227622 221800 216881 212835 209873 208379 208759
          250309 237524 228219 221108 215419 210586 206550 203727 202906 205449 250353 237674
          228539 221716 216430 211661 207390 204265 203189 205536 250422 237919 229098 222906
          218990 214304 209261 205354 203721 205692 250484 238147 229644 224156 222241 218404
          212538 206927 204376 205869 250503 238224 229854 224700 224390 220164 215227 208516
          204811 205964 250461 238083 229555 224073 222188 218379 212470 206827 204301 205842
          250372 237777 228898 222748 219198 214146 208992 205099 203546 205630 250266 237422
          228146 221236 215946 211083 206814 203788 202879 205429 250180 237135 227579 220246
          214403 209511 205562 202951 202417 205283 250132 236981 227286 219774 213750 208831
          204992 202548 202186 205209
        </DataArray>
        <DataArray type="Float32" Name="wetting saturation" NumberOfComponents="1" format="ascii">
          1 1 1 1 1 1 1 1 1 1 1 1
          1 1 1 1 1 1 1 1 1 1 1 1
          1 1 1 1 1 1 1 1 1 1 1 1
          1 1 1 1 1 1 1 1 0.96114 0.987873 1 1
          1 1 1 1 1 1 0.999801 1 1 1 1 1
          1 1 1 1 1 1 1 1 1 1 1 1
          1 1 1 1 1 1 1 1 1 1 1 1
          1 1 1 1 1 1 1 1 1 1 1 1
          1 1 1 1 1 1 1 1 1 1 1 1
          1 1 1 1 1 1 1 1 1 1 1 1
          1 1 1 1 1 1 1 1 1 1 1 1
          1 1 0.993725 1 1 1 1 1 1 1 1 1
          0.937401 0.972958 0.990269 1 1 1 1 1 1 1 0.993388 1
          1 1 1 1 1 1 1 1 1 1 1 1
          1 1 1 1 1 1 1 1 1 1 1 1
          1 1 1 1 1 1 1 1 1 1 1 1
          1 1 1 1 1 1 1 1 1 1 1 1
          1 1 1 1 1 1 1 1 1 1 1 1
          1 1 1 1 1 1 1 1 1 1 1 1
          1 1 1 1 1 1 0.988881 1 1 1 1 1
          1 1 1 1 0.930201 0.967605 0.986774 1 1 1 1 1
          1 1 0.988362 1 1 1 1 1 1 1 1 1
          1 1 1 1 1 1 1 1 1 1 1 1
          1 1 1 1 1 1 1 1 1 1 1 1
          1 1 1 1 1 1 1 1 1 1 1 1
          1 1 1 1 1 1 1 1 1 1 1 1
          1 1 1 1 1 1 1 1 1 1 1 1
          1 1 1 1 1 1 1 1 1 1 0.987022 0.999987
          1 1 1 1 1 1 1 1 0.928874 0.965932 0.986041 1
          1 1 1 1 1 1 0.986346 0.998982 1 1 1 1
          1 1 1 1 1 1 1 1 1 1 1 1
          1 1 1 1 1 1 1 1 1 1 1 1
          1 1 1 1 1 1 1 1 1 1 1 1
          1 1 1 1 1 1 1 1 1 1 1 1
          1 1 1 1 1 1 1 1 1 1 1 1
          1 1 1 1 1 1 1 1 1 1 1 1
          1 1 0.986653 0.999386 1 1 1 1 1 1 1 1
          0.928994 0.965552 0.986176 1 1 1 1 1 1 1 0.985974 0.998318
          1 1 1 1 1 1 1 1 1 1 1 1
          1 1 1 1 1 1 1 1 1 1 1 1
          1 1 1 1 1 1 1 1 1 1 1 1
          1 1 1 1 1 1 1 1 1 1 1 1
          1 1 1 1 1 1 1 1 1 1 1 1
          1 1 1 1 1 1 1 1 1 1 1 1
          1 1 1 1 1 1 0.986843 0.999318 1 1 1 1
          1 1 1 1 0.929462 0.965519 0.986599 1 1 1 1 1
          1 1 0.986145 0.998166 1 1 1 1 1 1 1 1
          1 1 1 1 1 1 1 1 1 1 1 1
          1 1 1 1 1 1 1 1 1 1 1 1
          1 1 1 1 1 1 1 1 1 1 1 1
          1 1 1 1 1 1 1 1 1 1 1 1
          1 1 1 1 1 1 1 1 1 1 1 1
          1 1 1 1 1 1 1 1 1 1 0.987064 0.999227
          1 1 1 1 1 1 1 1 0.929778 0.965471 0.987086 1
          1 1 1 1 1 1 0.986343 0.997967 1 1 1 1
          1 1 1 1 1 1 1 1 1 1 1 1
          1 1 1 1 1 1 1 1 1 1 1 1
          1 1 1 1 1 1 1 1 1 1 1 1
          1 1 1 1 1 1 1 1 1 1 1 1
          1 1 1 1 1 1 1 1 1 1 1 1
          1 1 1 1 1 1 1 1 1 1 1 1
          1 1 0.986914 0.99855 1 1 1 1 1 1 1 1
          0.92958 0.965239 0.987482 1 1 1 1 1 1 1 0.98619 0.997099
          1 1 1 1 1 1 1 1 1 1 1 1
          1 1 1 1 1 1 1 1 1 1 1 1
          1 1 1 1 1 1 1 1 1 1 1 1
          1 1 1 1 1 1 1 1 1 1 1 1
          1 1 1 1 1 1 1 1 1 1 1 1
          1 1 1 1 1 1 1 1 1 1 1 1
          1 1 1 1 1 1 0.985468 0.996288 1 1 1 1
          1 1 1 1 0.927241 0.963732 0.98729 1 1 1 1 1
          1 1 0.984732 0.995501 1 1 1 1 1 1 1 1
          1 1 1 1 1 1 1 1 1 1 1 1
          1 1 1 1 1 1 1 1 1 1 1 1
          1 1 1 1 1 1 1 1 1 1 1 1
          1 1 1 1 1 1 1 1 1 1 1 1
          1 1 1 1 1 1 1 1 1 1 1 1
          1 1 1 1 1 1 1 1 1 1 0.963908 0.979281
          1 1 1 1 1 1 1 1 0.89159 0.935564 0.972738 1
          1 1 1 1 1 1 0.962621 0.978673 1 1 1 1
          1 1 1 1 0.998584 1 1 1 1 1 1 1
          1 1 1 1 1 1 1 1 1 1 1 1
          1 1 1 1 1 1 1 1 1 1 1 1
          1 1 1 1
        </DataArray>
        <DataArray type="Float32" Name="C^w from cellData" NumberOfComponents="1" format="ascii">
          199.956 199.956 199.956 199.956 199.956 199.955 199.955 199.954 199.953 199.952 199.956 199.956
          199.956 199.956 199.956 199.955 199.955 199.954 199.953 199.952 199.956 199.956 199.956 199.956
          199.956 199.955 199.955 199.954 199.953 199.952 199.956 199.956 199.956 199.956 199.308 199.786
          199.955 199.954 199.953 199.952 199.956 199.956 199.956 199.857 191.445 196.469 198.896 199.954
          199.953 199.952 199.956 199.956 199.956 199.956 199.229 199.767 199.955 199.954 199.953 199.952
          199.956 199.956 199.956 199.956 199.956 199.955 199.955 199.954 199.953 199.952 199.956 199.956
          199.956 199.956 199.956 199.955 199.955 199.954 199.953 199.952 199.956 199.956 199.956 199.956
          199.956 199.955 199.955 199.954 199.953 199.952 199.956 199.956 199.956 199.956 199.956 199.955
          199.955 199.954 199.953 199.952 199.955 199.956 199.956 199.955 199.955 199.955 199.954 199.953
          199.952 199.951 199.955 199.956 199.956 199.955 199.955 199.955 199.954 199.953 199.952 199.951
          199.955 199.956 199.956 199.955 199.889 199.955 199.954 199.953 199.952 199.951 199.955 199.956
          199.956 199.944 198.039 199.215 199.897 199.953 199.952 199.951 199.955 199.956 199.956 199.791
          187.24 193.836 197.022 199.53 199.952 199.951 199.955 199.956 199.956 199.944 197.951 199.173
          199.893 199.953 199.952 199.951 199.955 199.956 199.956 199.955 199.872 199.955 199.954 199.953
          199.952 199.951 199.955 199.956 199.956 199.955 199.955 199.955 199.954 199.953 199.952 199.951
          199.955 199.956 199.956 199.955 199.955 199.955 199.954 199.953 199.952 199.951 199.955 199.956
          199.956 199.955 199.955 199.955 199.954 199.953 199.952 199.951 199.955 199.955 199.955 199.955
          199.955 199.954 199.954 199.953 199.952 199.951 199.955 199.955 199.955 199.955 199.955 199.954
          199.954 199.953 199.952 199.951 199.955 199.955 199.955 199.955 199.777 199.954 199.954 199.953
          199.952 199.951 199.955 199.955 199.955 199.944 196.889 198.909 199.831 199.953 199.952 199.951
          199.955 199.955 199.955 199.782 185.84 192.573 196.099 199.315 199.952 199.951 199.955 199.955
          199.955 199.942 196.755 198.872 199.826 199.953 199.952 199.951 199.955 199.955 199.955 199.955
          199.745 199.954 199.954 199.953 199.952 199.951 199.955 199.955 199.955 199.955 199.955 199.954
          199.954 199.953 199.952 199.951 199.955 199.955 199.955 199.955 199.955 199.954 199.953 199.953
          199.952 199.951 199.955 199.955 199.955 199.955 199.954 199.954 199.953 199.953 199.952 199.951
          199.955 199.955 199.955 199.954 199.954 199.954 199.953 199.952 199.952 199.951 199.955 199.955
          199.955 199.954 199.954 199.954 199.953 199.952 199.952 199.951 199.955 199.955 199.955 199.954
          199.711 199.954 199.953 199.952 199.952 199.951 199.955 199.955 199.955 199.941 196.48 198.697
          199.809 199.953 199.952 199.951 199.955 199.955 199.955 199.816 185.571 192.272 195.914 199.305
          199.952 199.951 199.955 199.955 199.955 199.941 196.36 198.555 199.802 199.953 199.952 199.951
          199.955 199.955 199.955 199.954 199.674 199.954 199.953 199.952 199.952 199.951 199.955 199.955
          199.955 199.954 199.954 199.954 199.953 199.952 199.952 199.951 199.955 199.955 199.955 199.954
          199.954 199.954 199.953 199.952 199.952 199.951 199.955 199.955 199.955 199.954 199.954 199.954
          199.953 199.952 199.952 199.951 199.955 199.955 199.954 199.954 199.954 199.953 199.953 199.952
          199.951 199.951 199.955 199.955 199.954 199.954 199.954 199.953 199.953 199.952 199.951 199.951
          199.955 199.955 199.954 199.954 199.689 199.953 199.953 199.952 199.951 199.951 199.955 199.955
          199.954 199.938 196.417 198.61 199.812 199.952 199.952 199.951 199.955 199.955 199.954 199.882
          185.585 192.219 196.002 199.376 199.952 199.951 199.955 199.955 199.954 199.939 196.294 198.484
          199.805 199.952 199.952 199.951 199.955 199.955 199.954 199.954 199.649 199.953 199.953 199.952
          199.951 199.951 199.955 199.955 199.954 199.954 199.954 199.953 199.953 199.952 199.951 199.951
          199.955 199.955 199.954 199.954 199.954 199.953 199.953 199.952 199.951 199.951 199.955 199.955
          199.954 199.954 199.954 199.953 199.953 199.952 199.951 199.951 199.955 199.955 199.954 199.954
          199.953 199.953 199.952 199.952 199.951 199.951 199.955 199.955 199.954 199.954 199.953 199.953
          199.952 199.952 199.951 199.951 199.955 199.955 199.954 199.954 199.686 199.953 199.952 199.952
          199.951 199.951 199.955 199.955 199.954 199.936 196.464 198.608 199.824 199.952 199.951 199.951
          199.955 199.955 199.954 199.889 185.682 192.219 196.175 199.466 199.951 199.951 199.955 199.955
          199.954 199.936 196.336 198.478 199.817 199.952 199.951 199.951 199.955 199.955 199.954 199.954
          199.642 199.953 199.952 199.952 199.951 199.951 199.955 199.955 199.954 199.954 199.953 199.953
          199.952 199.952 199.951 199.951 199.955 199.955 199.954 199.954 199.953 199.953 199.952 199.952
          199.951 199.951 199.955 199.955 199.954 199.954 199.953 199.953 199.952 199.952 199.951 199.951
          199.955 199.954 199.954 199.953 199.953 199.952 199.952 199.951 199.951 199.951 199.955 199.954
          199.954 199.953 199.953 199.952 199.952 199.951 199.951 199.951 199.955 199.954 199.954 199.953
          199.681 199.952 199.952 199.951 199.951 199.951 199.955 199.954 199.954 199.933 196.519 198.605
          199.837 199.952 199.951 199.951 199.955 199.954 199.954 199.931 185.763 192.221 196.362 199.55
          199.951 199.951 199.955 199.954 199.954 199.933 196.386 198.472 199.83 199.952 199.951 199.951
          199.955 199.954 199.954 199.953 199.634 199.952 199.952 199.951 199.951 199.951 199.955 199.954
          199.954 199.953 199.953 199.952 199.952 199.951 199.951 199.951 199.955 199.954 199.954 199.953
          199.953 199.952 199.952 199.951 199.951 199.951 199.955 199.954 199.954 199.953 199.953 199.952
          199.952 199.951 199.951 199.951 199.955 199.954 199.953 199.953 199.952 199.952 199.951 199.951
          199.951 199.951 199.955 199.954 199.953 199.953 199.952 199.952 199.951 199.951 199.951 199.951
          199.955 199.954 199.953 199.953 199.653 199.952 199.951 199.951 199.951 199.951 199.955 199.954
          199.953 199.931 196.506 198.543 199.843 199.951 199.951 199.951 199.955 199.954 199.953 199.92
          185.759 192.205 196.508 199.612 199.951 199.951 199.955 199.954 199.953 199.931 196.366 198.464
          199.84 199.951 199.951 199.951 199.955 199.954 199.953 199.953 199.603 199.951 199.951 199.951
          199.951 199.951 199.955 199.954 199.953 199.953 199.952 199.952 199.951 199.951 199.951 199.951
          199.955 199.954 199.953 199.953 199.952 199.952 199.951 199.951 199.951 199.951 199.955 199.954
          199.953 199.953 199.952 199.952 199.951 199.951 199.951 199.951 199.955 199.954 199.953 199.952
          199.952 199.951 199.951 199.95 199.95 199.95 199.955 199.954 199.953 199.952 199.952 199.951
          199.951 199.95 199.95 199.95 199.955 199.954 199.953 199.952 199.547 199.942 199.951 199.951
          199.95 199.95 199.955 199.954 199.953 199.931 196.254 198.337 199.815 199.951 199.95 199.95
          199.955 199.954 199.953 199.931 185.336 192.072 196.459 199.61 199.95 199.95 199.955 199.954
          199.953 199.931 196.131 198.203 199.793 199.951 199.95 199.95 199.955 199.954 199.953 199.952
          199.495 199.932 199.951 199.951 199.95 199.95 199.955 199.954 199.953 199.952 199.952 199.951
          199.951 199.95 199.95 199.95 199.955 199.954 199.953 199.952 199.952 199.951 199.951 199.95
          199.95 199.95 199.955 199.954 199.953 199.952 199.951 199.951 199.951 199.95 199.95 199.95
          199.954 199.953 199.952 199.951 199.951 199.95 199.95 199.95 199.95 199.95 199.954 199.953
          199.952 199.951 199.951 199.95 199.95 199.95 199.95 199.95 199.954 199.953 199.952 199.951
          198.736 199.446 199.95 199.95 199.95 199.95 199.954 199.953 199.952 199.931 191.685 194.403
          198.693 199.95 199.95 199.95 199.954 199.953 199.952 199.894 178.227 186.828 192.414 198.694
          199.95 199.95 199.954 199.953 199.952 199.931 191.53 194.227 198.64 199.95 199.95 199.95
          199.954 199.953 199.952 199.951 198.483 199.391 199.95 199.95 199.95 199.95 199.954 199.953
          199.952 199.951 199.951 199.95 199.95 199.95 199.95 199.95 199.954 199.953 199.952 199.951
          199.951 199.95 199.95 199.95 199.95 199.95 199.954 199.953 199.952 199.951 199.951 199.95
          199.95 199.95 199.95 199.95
        </DataArray>
        <DataArray type="Float32" Name="C^n from cellData" NumberOfComponents="1" format="ascii">
          0 0 0 1.47866e-15 2.68869e-11 8.34443e-13 9.90277e-15 2.13611e-17 0 0 0 0
          2.94542e-16 5.01259e-12 5.98696e-08 2.71567e-09 3.76564e-11 3.05756e-13 1.81165e-15 0 2.26712e-18 4.23545e-15 7.11819e-13 5.93245e-09
          4.52028e-05 3.3912e-06 5.74583e-08 5.36129e-10 3.77103e-12 2.51812e-14 8.47073e-14 7.88074e-12 9.77641e-10 3.41155e-06 0.0151767 0.00200694
          4.31465e-05 4.84263e-07 4.07344e-09 2.96313e-11 2.41191e-10 1.69439e-08 1.48643e-06 0.00143551 0.0410557 0.0233244 0.0152246 0.000243249
          2.74303e-06 2.55854e-08 1.31468e-13 1.27199e-11 1.56578e-09 4.20682e-06 0.0160375 0.00219872 4.75562e-05 5.39542e-07 4.5491e-09 3.28346e-11
          4.48755e-18 8.10922e-15 1.4006e-12 8.59577e-09 5.53265e-05 4.2367e-06 7.15627e-08 6.6772e-10 4.65555e-12 3.03161e-14 0 0
          7.68693e-16 9.33786e-12 8.97735e-08 4.16156e-09 5.73251e-11 4.61733e-13 2.7021e-15 0 0 0 0 4.6951e-15
          6.49315e-11 2.03005e-12 2.36499e-14 5.5883e-17 0 0 0 0 0 0 1.61533e-14 3.08204e-16
          0 0 0 0 0 0 0 3.82119e-15 1.13054e-10 3.20803e-12 3.18911e-14 6.27041e-17
          0 0 0 0 2.85759e-16 1.235e-11 4.93348e-07 1.30571e-08 1.47826e-10 9.42668e-13 4.07305e-15 8.3434e-19
          0 1.54237e-15 6.39044e-13 1.33722e-08 0.000721432 1.82155e-05 3.66542e-07 1.86702e-09 1.01149e-11 4.42916e-14 1.68123e-14 2.859e-12