<?xml version="1.0"?>
<VTKFile type="UnstructuredGrid" version="0.1" byte_order="LittleEndian">
  <UnstructuredGrid>
    <Piece NumberOfCells="163" NumberOfPoints="194">
      <CellData Scalars="wetting pressure">
        <DataArray type="Float32" Name="wetting pressure" NumberOfComponents="1" format="ascii">
          265404 270334 271651 270486 267354 262448 255732 246955 235578 220496 261852 264138
          264322 262643 259318 254448 247983 239746 229472 216977 260099 260042 258856 256447
          252825 248043 242007 234573 225587 215297 258982 257075 254613 251464 249817 247692
          245221 247356 245370 242831 240558 242984 240015 236956 235040 237916 230954 223004
          214303 258117 254664 251058 249213 247248 245213 247232 245164 243007 241122 243137
          240882 238566 236935 239119 236098 233503 232209 234626 230844 227384 226471 229615
          221171 213595 257316 252407 247691 245332 243230 241169 243348 241196 239282 237244
          239094 237367 235327 233523 235431 233167 230900 229333 231512 228421 225187 223653
          226970 219215 212879 256439 249955 244053 241282 238994 236616 238969 236898 235047
          232663 234542 233299 231498 229177 230955 229660 227680 225645 227516 224933 221749
          219500 222436 216602 211965 255301 246923 239689 233737 231837 229955 226541 228519
          228259 226510 222705 224643 224523 222056 218296 220518 216793 213195 210725 253525
          242747 234044 227150 221778 217399 213513 210388 208661 208845 249958 236495 226591
          219043 213197 208580 204956 202584 202218 205218
        </DataArray>
        <DataArray type="Float32" Name="nonwetting pressure" NumberOfComponents="1" format="ascii">
          265404 270334 271651 270486 267354 262448 255732 246955 235578 220496 261852 264138
          264322 262643 259318 254448 247983 239746 229472 216977 260099 260042 258856 256447
          252825 248043 242007 234573 225587 215297 258982 257075 254613 251464 249817 247692
          245221 247356 245370 242831 240558 242984 240015 236956 235040 237916 230954 223004
          214303 258117 254664 251058 249213 247248 245213 247232 245545 243570 241911 243693
          241219 238777 237326 239667 236239 233604 232411 234910 230885 227384 226482 229737
          221171 213595 257316 252407 247691 245332 243230 241169 243348 241507 239806 237597
          239273 237844 235716 233859 235806 233472 231119 229549 231788 228553 225187 223653
          227085 219215 212879 256439 249955 244053 241282 238994 236616 238969 237000 235284
          232813 234596 233581 231769 229387 231148 229885 227831 225700 227670 224933 221749
          219500 222436 216602 211965 255301 246923 239689 233737 231837 230031 226541 228519
          228369 226627 222705 224643 224530 222056 218296 220518 216793 213195 210725 253525
          242747 234044 227150 221778 217399 213513 210388 208661 208845 249958 236495 226591
          219043 213197 208580 204956 202584 202218 205218
        </DataArray>
        <DataArray type="Float32" Name="wetting saturation" NumberOfComponents="1" format="ascii">
          1 1 1 1 1 1 1 1 1 1 1 1
          1 1 1 1 1 1 1 1 1 1 1 1
          1 1 1 1 1 1 1 1 1 1 1 1
          1 1 1 1 1 1 1 1 1 1 1 1
          1 1 1 1 1 1 1 1 0.96186 0.943652 0.921071 0.944469
          0.966311 0.978892 0.960929 0.945155 0.985889 0.989899 0.979784 0.971618 0.995858 1 0.998892 0.987763
          1 1 1 1 1 1 1 1 1 0.968946 0.947669 0.964677
          0.982043 0.952361 0.961117 0.966412 0.962544 0.969534 0.978127 0.978347 0.972335 0.986773 1 1
          0.988574 1 1 1 1 1 1 1 1 1 0.989822 0.97635
          0.984993 0.994618 0.97177 0.972894 0.979057 0.980625 0.977439 0.984895 0.994541 0.984613 1 1
          1 1 1 1 1 1 1 1 1 0.992419 1 1
          0.988964 0.988265 1 1 0.999296 1 1 1 1 1 1 1
          1 1 1 1 1 1 1 1 1 1 1 1
          1 1 1 1 1 1 1
        </DataArray>
        <DataArray type="Float32" Name="C^w from cellData" NumberOfComponents="1" format="ascii">
          200 200 200 200 200 200 200 200 200 200 200 200
          200 200 200 200 200 200 200 200 200 200 200 200
          200 200 200 200 200 200 200 200 200 200 200 200
          199.912 200.017 199.998 199.998 199.997 199.99 199.998 199.998 199.995 199.981 199.996 200
          200 200 200 200 200 199.859 199.973 200 192.965 188.101 183.487 188.255
          193.928 196.366 192.03 188.927 196.966 198.027 196.174 193.989 198.544 199.943 198.929 196.526
          200 200 200 200 200 200 199.91 199.915 200 194.448 189.451 192.844
          196.927 190.11 191.914 192.93 192.167 193.491 195.427 195.137 193.963 196.472 199.297 199.686
          196.721 200 200 200 200 200 199.999 199.939 199.972 199.999 197.834 194.877
          197.221 198.644 193.9 194.073 195.36 195.58 194.841 196.649 197.943 196.233 199.062 199.999
          199.999 199.988 200 200 200 200 200 200 199.594 197.718 199.535 200
          197.811 196.614 199.583 199.337 198.743 199.985 200 200 200 200 200 200
          200 200 200 200 200 200 200 200 200 200 200 200
          200 200 200 200 200 200 200
        </DataArray>
        <DataArray type="Float32" Name="C^n from cellData" NumberOfComponents="1" format="ascii">
          0 0 0 2.09068e-10 8.70885e-10 4.90302e-10 2.36729e-10 2.22497e-11 9.80832e-13 3.79548e-14 0 0
          0 3.90284e-08 1.748e-07 8.17399e-08 4.75308e-08 6.40016e-09 2.04338e-10 4.97497e-12 0 0 0 2.83355e-06
          1.34327e-05 5.43048e-06 3.46574e-06 1.06792e-06 2.30506e-08 3.70516e-10 0 0 0 9.87437e-05 0.000376845 0.0006132
          0.00557203 0.0037787 0.000224274 0.00016254 0.00197993 0.00247041 0.00012573 0.000105638 0.00116186 0.00141981 0.000125815 1.79647e-06
          1.86759e-08 0 0 0 6.98383e-11 0.00297971 0.00435268 4.82418e-10 0.036943 0.0469599 0.0595958 0.0465075
          0.033731 0.0261824 0.0360878 0.0454727 0.021857 0.0194049 0.0249372 0.0297046 0.0158404 0.00136534 0.0138873 0.0201429
          7.36712e-05 5.00564e-07 0 0 0 0 0 0 0 0.0322457 0.0440662 0.0340173
          0.0244235 0.0409817 0.0357077 0.0324675 0.034914 0.0306679 0.0256579 0.0253185 0.0288868 0.02059 0.00963081 0.00378653
          0.0194749 2.91945e-05 8.1861e-08 0 0 0 0 0 0 0 0.0197145 0.0270925
          0.0220839 0.016818 0.0294327 0.028576 0.0249234 0.0242421 0.0258374 0.0216014 0.0161621 0.0216993 0.0114339 0.000113465
          3.32264e-05 0.000286048 4.78155e-07 1.88964e-09 0 0 0 0 0.00492854 0.0176502 0.00618109 0
          0.0194741 0.0195974 0.00457553 0.00786529 0.0135332 0.000217996 8.60064e-06 1.68634e-05 1.37396e-07 2.7799e-10 2.55598e-13 0
          0 0 0 0 0 0 0 0 0 0 0 0
          0 0 0 0 0 0 0
        </DataArray>
        <DataArray type="Float32" Name="capillary pressure" NumberOfComponents="1" format="ascii">
          0 0 0 0 0 0 0 0 0 0 0 0
          0 0 0 0 0 0 0 0 0 0 0 0
          0 0 0 0 0 0 0 0 0 0 0 0
          0 0 0 0 0 0 0 0 0 0 0 0
          0 0 0 0 0 0 0 0 381.399 563.487 789.295 555.31
          336.895 211.085 390.705 548.445 141.11 101.016 202.16 283.816 41.405 0 11.0663 122.371
          0 0 0 0 0 0 0 0 0 310.538 523.308 353.224
          179.572 476.387 388.829 335.873 374.56 304.657 218.725 216.523 276.648 132.26 0 0
          114.244 0 0 0 0 0 0 0 0 0 101.786 236.501
          150.065 53.8246 282.291 271.059 209.423 193.748 225.604 151.041 54.5428 153.863 0 0
          0 0 0 0 0 0 0 0 0 75.8053 0 0
          110.355 117.343 0 0 7.02896 0 0 0 0 0 0 0
          0 0 0 0 0 0 0 0 0 0 0 0
          0 0 0 0 0 0 0
        </DataArray>
        <DataArray type="Float32" Name="wetting density" NumberOfComponents="1" format="ascii">
          1000 1000 1000 1000 1000 1000 1000 1000 1000 1000 1000 1000
          1000 1000 1000 1000 1000 1000 1000 1000 1000 1000 1000 1000
          1000 1000 1000 1000 1000 1000 1000 1000 1000 1000 1000 1000
          1000.01 1000.01 1000 1000 1000 1000 1000 1000 1000 1000 1000 1000
          1000 1000 1000 1000 1000 1000.01 1000.01 1000 1000.03 1000.03 1000.03 1000.03
          1000.03 1000.03 1000.03 1000.03 1000.03 1000.03 1000.03 1000.03 1000.03 1000 1000.03 1000.03
          1000 1000 1000 1000 1000 1000 1000 1000 1000 1000.03 1000.03 1000.03
          1000.03 1000.03 1000.03 1000.03 1000.03 1000.03 1000.03 1000.03 1000.03 1000.03 1000.02 1000.01
          1000.03 1000 1000 1000 1000 1000 1000 1000 1000 1000 1000.03 1000.03
          1000.03 1000.03 1000.03 1000.03 1000.03 1000.03 1000.03 1000.03 1000.03 1000.03 1000.02 1000
          1000 1000 1000 1000 1000 1000 1000 1000 1000.01 1000.03 1000.01 1000
          1000.03 1000.03 1000.01 1000.01 1000.03 1000 1000 1000 1000 1000 1000 1000
          1000 1000 1000 1000 1000 1000 1000 1000 1000 1000 1000 1000
          1000 1000 1000 1000 1000 1000 1000
        </DataArray>
        <DataArray type="Float32" Name="nonwetting density" NumberOfComponents="1" format="ascii">
          3.25907 3.31971 3.33591 3.32158 3.28305 3.22271 3.14009 3.03213 2.89217 2.70665 3.21538 3.24349
          3.24576 3.22511 3.1842 3.12429 3.04477 2.94344 2.81706 2.66336 3.19381 3.19311 3.17852 3.14889
          3.10434 3.0455 2.97126 2.87981 2.76927 2.6427 3.18007 3.15662 3.12633 3.08759 3.06733 3.0412
          3.01079 3.03706 3.01263 2.98139 2.95344 2.98328 2.94675 2.90913 2.88555 2.92094 2.83529 2.73749
          2.63047 3.16942 3.12695 3.08259 3.05991 3.03573 3.01069 3.03554 3.01477 2.99048 2.97006 2.99198
          2.96156 2.93152 2.91367 2.94246 2.90031 2.86789 2.85321 2.88394 2.83444 2.79138 2.78029 2.82032
          2.71495 2.62175 3.15958 3.09919 3.04117 3.01215 2.98631 2.96095 2.98776 2.9651 2.94417 2.917
          2.93763 2.92003 2.89386 2.87102 2.89496 2.86626 2.83731 2.81801 2.84555 2.80576 2.76436 2.74548
          2.78769 2.69089 2.61295 3.14878 3.06903 2.99643 2.96234 2.9342 2.90494 2.93389 2.90967 2.88855
          2.85816 2.88009 2.8676 2.84532 2.81601 2.83768 2.82214 2.79688 2.77066 2.79489 2.76123 2.72206
          2.6944 2.73051 2.65874 2.60171 3.1348 3.03173 2.94275 2.86952 2.84616 2.82393 2.78101 2.80534
          2.80349 2.78207 2.73382 2.75766 2.75626 2.72584 2.67959 2.70692 2.66109 2.61684 2.58645 3.11295
          2.98036 2.87331 2.7885 2.72241 2.66855 2.62074 2.5823 2.56107 2.56332 3.06906 2.90346 2.78162
          2.68877 2.61686 2.56007 2.51548 2.4863 2.4818 2.51871
        </DataArray>
        <DataArray type="Float32" Name="mobility w_phase" NumberOfComponents="1" format="ascii">
          1000 1000 1000 1000 1000 1000 1000 1000 1000 1000 1000 1000
          1000 1000 1000 1000 1000 1000 1000 1000 1000 1000 1000 1000
          1000 1000 1000 1000 1000 1000 1000 1000 1000 1000 1000 1000
          1000 1000 1000 1000 1000 1000 1000 1000 1000 1000 1000 1000
          1000 1000 1000 1000 1000 1000 1000 1000 961.86 943.652 921.071 944.469
          966.31 978.892 960.929 945.155 985.889 989.899 979.784 971.618 995.858 1000 998.892 987.763
          1000 1000 1000 1000 1000 1000 1000 1000 1000 968.946 947.669 964.677
          982.043 952.361 961.117 966.412 962.544 969.534 978.127 978.347 972.335 986.773 1000 1000
          988.574 1000 1000 1000 1000 1000 1000 1000 1000 1000 989.822 976.35
          984.993 994.618 971.77 972.894 979.057 980.625 977.439 984.895 994.541 984.613 1000 1000
          1000 1000 1000 1000 1000 1000 1000 1000 1000 992.419 1000 1000
          988.964 988.265 1000 1000 999.296 1000 1000 1000 1000 1000 1000 1000
          1000 1000 1000 1000 1000 1000 1000 1000 1000 1000 1000 1000
          1000 1000 1000 1000 1000 1000 1000
        </DataArray>
        <DataArray type="Float32" Name="mobility nw_phase" NumberOfComponents="1" format="ascii">
          0 0 0 0 0 0 0 0 0 0 0 0
          0 0 0 0 0 0 0 0 0 0 0 0
          0 0 0 0 0 0 0 0 0 0 0 0
          0 0 0 0 0 0 0 0 0 0 0 0
          0 0 0 0 0 0 0 0 2181.9 3223.64 4515.56 3176.86
          1927.39 1207.64 2235.34 3137.74 807.316 577.945 1156.68 1623.83 236.982 0 63.3874 700.182
          0 0 0 0 0 0 0 0 0 1776.59 2993.92 2020.88
          1027.34 2725.54 2224.65 1921.71 2143.01 1743.11 1251.5 1238.9 1582.89 756.795 0 0
          653.757 0 0 0 0 0 0 0 0 0 582.33 1353.11
          858.609 307.941 1615.14 1550.91 1198.27 1108.58 1290.87 864.272 312.376 880.414 0 0
          0 0 0 0 0 0 0 0 0 433.742 0 0
          631.462 671.467 0 0 40.2627 0 0 0 0 0 0 0
          0 0 0 0 0 0 0 0 0 0 0 0
          0 0 0 0 0 0 0
        </DataArray>
        <DataArray type="Float32" Name="mass fraction H2O in liquid-phase" NumberOfComponents="1" format="ascii">
          1 1 1 1 1 1 1 1 1 1 1 1
          1 1 1 1 1 1 1 1 1 1 1 1
          1 1 1 1 1 1 1 1 1 1 0.999998 0.999997
          0.999972 0.999981 0.999999 0.999999 0.99999 0.999988 0.999999 0.999999 0.999994 0.999993 0.999999 1
          1 1 1 1 1 0.999985 0.999978 1 0.999928 0.999928 0.999929 0.999928
          0.999929 0.99993 0.99993 0.99993 0.99993 0.999931 0.999932 0.999931 0.999932 0.999993 0.999933 0.999932
          1 1 1 1 1 1 1 1 1 0.999929 0.999929 0.99993
          0.99993 0.99993 0.999931 0.999931 0.999931 0.999931 0.999932 0.999932 0.999932 0.999933 0.999952 0.999981
          0.999933 1 1 1 1 1 1 1 1 1 0.99993 0.999931
          0.999931 0.999931 0.999931 0.999932 0.999932 0.999932 0.999932 0.999933 0.999934 0.999933 0.999943 0.999999
          1 0.999999 1 1 1 1 1 1 0.999975 0.999932 0.999969 1
          0.999933 0.999933 0.999977 0.999961 0.999934 0.999999 1 1 1 1 1 1
          1 1 1 1 1 1 1 1 1 1 1 1
          1 1 1 1 1 1 1
        </DataArray>
        <DataArray type="Float32" Name="mass fraction H2O in gas-phase" NumberOfComponents="1" format="ascii">
          0.00288118 0.00282854 0.00281481 0.00282695 0.00286013 0.00291369 0.00299035 0.00309683 0.0032467 0.00346925 0.00292033 0.00289502
          0.00289299 0.00291152 0.00294893 0.00300547 0.00308397 0.00319014 0.00333327 0.00352564 0.00294005 0.00294069 0.00295419 0.00298199
          0.00302479 0.00308323 0.00316028 0.00326063 0.0033908 0.0035532 0.00295275 0.00297469 0.00300351 0.0030412 0.00306129 0.0030876
          0.00311878 0.0030918 0.00311687 0.00314954 0.00317934 0.00314754 0.00318656 0.00322778 0.00325414 0.00321472 0.00331183 0.00343016
          0.00356972 0.00296267 0.00300291 0.00304613 0.00306872 0.00309316 0.00311888 0.00309335 0.00311951 0.00314725 0.0031719 0.00314556
          0.00317506 0.00320595 0.00322806 0.00319853 0.00323953 0.0032756 0.0032939 0.0032599 0.00331342 0.00336394 0.00337752 0.00333119
          0.00345864 0.00358159 0.0029719 0.00302982 0.00308762 0.00311737 0.00314435 0.00317128 0.00314283 0.00317092 0.00319633 0.00322385
          0.00319886 0.00322217 0.00325017 0.00327533 0.00324873 0.00328033 0.00331261 0.0033353 0.00330384 0.00334864 0.00339682 0.00342018
          0.00337008 0.00348956 0.00359366 0.00298209 0.00305959 0.00313373 0.00316979 0.0032002 0.00323243 0.00320053 0.00322856 0.00325404
          0.00328746 0.00326106 0.00327848 0.00330403 0.00333756 0.00331182 0.00333053 0.00335955 0.00338992 0.00336198 0.00340067 0.0034496
          0.00348502 0.00343893 0.00353176 0.00360919 0.0029954 0.00309723 0.00319089 0.00327232 0.00329919 0.00332625 0.00337648 0.00334719
          0.00335102 0.00337695 0.00343476 0.00340507 0.0034069 0.00344482 0.00350429 0.0034689 0.00352864 0.00358832 0.00363047 0.00301643
          0.00315062 0.00326801 0.0033674 0.00344916 0.00351878 0.00358297 0.00363631 0.00366646 0.00366323 0.00305956 0.00323408 0.00337574
          0.00349232 0.00358829 0.00366789 0.00373291 0.00377672 0.00378357 0.00372812
        </DataArray>
        <DataArray type="Float32" Name="volume Error" NumberOfComponents="1" format="ascii">
          1.34548e-12 -1.44701e-12 -6.30385e-13 -2.96208e-13 8.88595e-13 -1.26305e-12 -6.72798e-12 -1.38015e-12 -7.10043e-13 -1.85529e-12 -1.39244e-12 -3.23841e-12
          -8.79297e-13 -1.01447e-13 -6.1558e-12 -3.21992e-12 -1.29929e-12 3.42254e-13 -5.04208e-13 -4.786e-12 -1.90531e-12 -1.96732e-12 -9.16101e-13 2.19452e-12
          4.6774e-12 -5.30825e-12 -3.54888e-12 -5.76614e-12 6.87617e-13 -3.64281e-12 -2.3202e-12 -7.2542e-13 -5.73319e-13 -1.07322e-12 3.91266e-08 6.42707e-08
          -8.42403e-05 1.93248e-05 -1.71142e-06 -1.7157e-06 -2.0079e-06 -8.50859e-06 -2.13476e-06 -2.13675e-06 -4.3284e-06 -1.76557e-05 -3.73526e-06 -5.5233e-12
          2.5045e-12 -9.54181e-13 3.31674e-12 -1.08769e-12 -2.19677e-08 -0.000139038 -2.41073e-05 -3.49302e-08 0.000624875 -0.000658515 -0.000780596 -0.000667193
          0.000697637 0.000609454 -0.000153958 -0.000101351 -0.000205887 5.62727e-05 0.000230504 -0.000335744 -0.000622309 -5.58735e-05 -0.000842104 -0.00103114
          -4.26379e-07 -2.89091e-12 9.26703e-13 -7.28834e-13 2.77497e-12 7.7961e-12 -8.96986e-05 -8.4948e-05 2.42469e-11 0.000689044 -7.88423e-05 -8.62421e-05
          0.000536687 -0.000371322 -0.00031322 -0.00035655 -0.000345965 -0.000420422 -0.000194055 -0.000536314 -0.000510034 -0.000886585 -0.0006972 -0.000312001
          -0.000996818 2.21323e-12 -3.79874e-12 4.10755e-13 -2.40916e-12 -1.53885e-12 -7.25936e-07 -6.14334e-05 -2.77912e-05 -7.25932e-07 -0.000122929 -0.000393626
          0.000233935 -0.000272212 -0.00045868 -0.000511493 -0.000452723 -0.000547074 -0.000653775 -0.000326901 -0.000962457 -0.00069168 -0.000930717 -5.95009e-07
          -5.95004e-07 -1.15184e-05 2.48893e-12 -1.07081e-13 7.1812e-13 2.13271e-12 5.12063e-13 1.12538e-12 -0.000403406 -0.000763785 -0.000460915 -9.4141e-10
          2.64226e-05 -0.00104269 -0.00041412 -0.0006578 -0.00110915 -1.47718e-05 8.18911e-11 2.73914e-10 1.7108e-12 3.96322e-13 2.00071e-12 5.49696e-12
          6.428e-12 4.99828e-12 3.91312e-12 1.27343e-12 4.31777e-12 8.11851e-13 3.76088e-14 -8.59368e-13 2.4139e-12 2.72551e-12 5.52083e-12 2.51729e-12
          1.45511e-12 1.13534e-12 1.1437e-12 -2.15578e-13 -4.374e-13 1.42969e-13 7.79043e-13
        </DataArray>
        <DataArray type="Float32" Name="Error Correction" NumberOfComponents="1" format="ascii">
          0 0 0 0 0 0 0 0 0 0 0 0
          0 0 0 0 0 0 0 0 0 0 0 0
          0 0 0 0 0 0 0 0 0 0 0 0
          0 0 0 0 0 0 0 0 0 0 0 0
          0 0 0 0 0 0 0 0 0 0 0 0
          0 0 0 0 0 0 0 0 0 0 0 0
          0 0 0 0 0 0 0 0 0 0 0 0
          0 0 0 0 0 0 0 0 0 0 0 0
          0 0 0 0 0 0 0 0 0 0 0 0
          0 0 0 0 0 0 0 0 0 0 0 0
          0 0 0 0 0 0 0 0 0 0 0 0
          0 0 0 0 0 0 0 0 0 0 0 0
          0 0 0 0 0 0 0 0 0 0 0 0
          0 0 0 0 0 0 0
        </DataArray>
        <DataArray type="Float32" Name="dv_dp" NumberOfComponents="1" format="ascii">
          0 0 0 0 0 0 0 0 0 0 0 0
          0 0 0 0 0 0 0 0 0 0 0 0
          0 0 0 0 0 0 0 0 0 0 0 0
          0 0 0 0 0 0 0 0 0 0 0 0
          0 0 0 0 0 0 0 0 -5.04962e-08 -6.54585e-08 -8.39348e-08 -6.48031e-08
          -4.76337e-08 -3.78643e-08 -5.24548e-08 -6.4783e-08 -3.23612e-08 -2.94107e-08 -3.76525e-08 -4.40638e-08 -2.32848e-08 0 0 -3.12005e-08
          0 0 0 0 0 0 0 0 0 -4.54858e-08 -6.28093e-08 -4.94213e-08
          -3.52953e-08 -5.91521e-08 -5.24009e-08 -4.83935e-08 -5.12562e-08 -4.58364e-08 -3.88253e-08 -3.9205e-08 -4.37403e-08 -3.18819e-08 0 0
          -3.00824e-08 0 0 0 0 0 0 0 0 0 -2.89858e-08 -4.01492e-08
          -3.33058e-08 -2.5251e-08 -4.4033e-08 -4.33177e-08 -3.87051e-08 -3.67523e-08 -3.9672e-08 -3.36133e-08 -2.20713e-08 -3.38736e-08 0 0
          0 0 0 0 0 0 0 0 0 -2.72715e-08 0 0
          -3.01721e-08 -3.07557e-08 0 0 0 0 0 0 0 0 0 0
          0 0 0 0 0 0 0 0 0 0 0 0
          0 0 0 0 0 0 0
        </DataArray>
        <DataArray type="Float32" Name="dV_dC1" NumberOfComponents="1" format="ascii">
          0.001 0.001 0.001 0.001 0.001 0.001 0.001 0.001 0.001 0.001 0.001 0.001
          0.001 0.001 0.001 0.001 0.001 0.001 0.001 0.001 0.001 0.001 0.001 0.001
          0.001 0.001 0.001 0.001 0.001 0.001 0.001 0.001 0.001 0.001 0.001 0.001
          0.001 0.001 0.001 0.001 0.001 0.001 0.001 0.001 0.001 0.001 0.001 0.001
          0.001 0.001 0.001 0.001 0.001 0.001 0.001 0.001 0.000975996 0.000976015 0.000976037 0.000976014
          0.000975992 0.000975979 0.000975997 0.000976012 0.000975972 0.000975967 0.000975977 0.000975986 0.000975959 0.001 0.001 0.000975968
          0.001 0.001 0.001 0.001 0.001 0.001 0.001 0.001 0.001 0.000975989 0.00097601 0.000975993
          0.000975976 0.000976005 0.000975996 0.000975991 0.000975995 0.000975988 0.000975978 0.000975978 0.000975984 0.000975969 0.001 0.001
          0.000975966 0.001 0.001 0.001 0.001 0.001 0.001 0.001 0.001 0.001 0.000975968 0.000975981
          0.000975972 0.000975963 0.000975985 0.000975984 0.000975978 0.000975976 0.000975979 0.000975971 0.000975956 0.000975971 0.001 0.001
          0.001 0.001 0.001 0.001 0.001 0.001 0.001 0.001 0.001 0.000975964 0.001 0.001
          0.000975967 0.000975967 0.001 0.001 0.001 0.001 0.001 0.001 0.001 0.001 0.001 0.001
          0.001 0.001 0.001 0.001 0.001 0.001 0.001 0.001 0.001 0.001 0.001 0.001
          0.001 0.001 0.001 0.001 0.001 0.001 0.001
        </DataArray>
        <DataArray type="Float32" Name="dV_dC2" NumberOfComponents="1" format="ascii">
          0.000621548 0.000621547 0.000621547 0.000621548 0.000621547 0.000621548 0.000621546 0.000621546 0.000621547 0.000621545 0.000621546 0.000621547
          0.000621548 0.000621547 0.000621547 0.000621548 0.000621547 0.000621547 0.000621549 0.000621548 0.000621548 0.000621546 0.000621547 0.000621547
          0.000621547 0.000621547 0.000621547 0.000621547 0.000621545 0.000621547 0.000621545 0.000621547 0.000621547 0.000621547 0.000621547 0.000621547
          0.000621547 0.000621547 0.000621547 0.000621547 0.000621547 0.000621547 0.000621547 0.000621547 0.000621547 0.000621547 0.000621547 0.000621547
          0.000621547 0.000621546 0.000621548 0.000621546 0.000621546 0.000621547 0.000621547 0.000621548 0.333083 0.335872 0.338235 0.335703
          0.339049 0.342459 0.344678 0.341332 0.346239 0.350255 0.352172 0.348293 0.354566 0.000621547 0.128462 0.356659
          0.000621547 0.000621547 0.000621547 0.000621547 0.000621547 0.000621547 0.000621546 0.000621545 0.000621547 0.338636 0.34113 0.344269
          0.341741 0.343951 0.347106 0.349973 0.346968 0.350536 0.354209 0.356844 0.353257 0.35835 0.000621547 0.000621547
          0.360646 0.000621547 0.000621547 0.000621545 0.000621546 0.000621545 0.000621547 0.000621547 0.000621545 0.000621547 0.345076 0.347692
          0.351421 0.348683 0.350357 0.353288 0.357109 0.354124 0.356447 0.359827 0.364181 0.360134 0.000621547 0.000621547
          0.000621547 0.000621547 0.000621547 0.000621549 0.000621547 0.000621547 0.000621547 0.000621546 0.000621547 0.35578 0.000621547 0.000621546
          0.358489 0.361386 0.000621547 0.000621547 0.0663679 0.000621547 0.000621546 0.000621547 0.000621548 0.000621548 0.000621546 0.000621546
          0.000621548 0.000621547 0.000621547 0.000621545 0.000621547 0.000621546 0.000621545 0.000621546 0.000621547 0.000621545 0.000621546 0.000621546
          0.000621546 0.000621544 0.000621548 0.000621548 0.000621546 0.000621546 0.000621548
        </DataArray>
        <DataArray type="Float32" Name="updEstimate comp 1" NumberOfComponents="1" format="ascii">
          6.06692e-10 1.99555e-10 1.17624e-11 -6.3706e-11 2.29883e-10 3.31772e-10 -5.47286e-10 7.99771e-11 7.4672e-10 2.89952e-10 3.45552e-10 1.14657e-11
          1.46462e-10 -1.99821e-09 -9.50039e-09 -3.61349e-09 -2.76347e-09 -1.71329e-09 9.56784e-11 2.88333e-10 -4.6607e-10 -3.5628e-10 -5.72969e-11 -1.03875e-07
          -4.79847e-07 -2.02323e-07 -1.32439e-07 -1.35784e-07 -4.27245e-09 -1.21189e-10 -4.62489e-10 -8.35281e-11 2.63777e-11 -1.79139e-06 -7.3766e-06 -1.1055e-05
          -0.00401813 0.00513887 -6.07921e-06 -4.5528e-06 0.00203609 0.00616842 -3.3297e-06 -2.7766e-06 0.00144084 0.000789623 -0.00286464 -2.8457e-07
          -3.09547e-09 3.17179e-10 2.49227e-10 3.17841e-11 -5.83537e-09 0.00101119 -0.00568364 1.56695e-10 0.0265262 0.15438 0.113097 0.165908
          -0.0151915 -0.0278981 -0.0492245 -0.0522603 0.0305729 0.0192262 -0.105646 -0.0511023 -0.324795 -0.0145898 -0.138262 -0.0285124
          -1.11695e-05 -9.70662e-08 5.17332e-10 8.23802e-11 1.57213e-10 2.65313e-10 0.00186785 -0.00209 1.10613e-09 -0.00548575 -0.0239645 -0.0238002
          0.012221 -0.104224 -0.111574 -0.111217 -0.092885 -0.110702 -0.193236 -0.0467969 -0.122638 -0.336405 -0.176838 -0.113387
          -0.59447 -7.89153e-06 -2.41238e-08 2.44993e-11 6.55583e-11 -1.4446e-10 3.49879e-10 -0.00346477 -0.00290324 1.2169e-09 0.0200044 -0.0169385
          -0.0707492 -0.0409323 -0.0796545 -0.108598 -0.0258076 -0.136117 -0.0981991 -0.424352 -0.357827 -0.407071 -0.257773 -2.71772e-05
          -1.54997e-07 -0.00317704 -7.40342e-08 -3.81934e-10 4.06483e-11 4.78745e-10 1.34471e-10 -1.03791e-10 -0.0808329 -0.150431 -0.110534 -1.8462e-06
          -0.310566 -0.55354 -0.154209 -0.164052 -0.306664 -0.00229413 -3.50375e-08 -1.27637e-05 -5.05349e-08 -6.81386e-10 -5.62324e-10 -2.90382e-10
          1.13724e-10 3.74259e-10 4.65246e-10 -6.58635e-07 -1.87948e-06 1.66066e-11 1.40103e-10 3.04487e-10 -4.23342e-10 -1.03262e-09 -6.47054e-10 4.93752e-10
          4.38154e-10 -2.37414e-10 -1.70888e-10 5.84949e-11 -6.53618e-12 1.49781e-11 -1.71473e-10
        </DataArray>
        <DataArray type="Float32" Name="updEstimate comp 2" NumberOfComponents="1" format="ascii">
          0 0 0 2.69087e-11 1.08462e-10 5.30808e-11 3.46467e-11 5.49075e-12 2.83411e-13 1.23517e-14 0 0
          0 3.67683e-09 1.59447e-08 6.80622e-09 4.84956e-09 1.5732e-09 5.6682e-11 1.51902e-12 0 0 0 1.72762e-07
          7.98818e-07 3.39289e-07 2.2211e-07 2.53684e-07 6.41089e-09 1.09541e-10 0 0 0 2.87922e-06 1.19815e-05 1.78867e-05
          2.77468e-05 3.18921e-05 1.0001e-05 7.53141e-06 5.67738e-05 6.10449e-05 5.57831e-06 4.70792e-06 6.69039e-05 6.22743e-05 2.14147e-05 4.81206e-07
          5.51908e-09 0 0 0 1.71193e-12 -3.07889e-06 -3.456e-05 -3.79817e-12 -0.000275767 6.55487e-05 0.000686785 5.45266e-05
          -0.000201925 -0.00032059 5.22928e-05 0.000216248 -0.000126378 -0.000152704 0.000118817 8.56641e-05 0.000777713 0.000643591 0.0019999 0.000456373
          1.79802e-05 1.55583e-07 0 0 0 0 0 0 0 -0.00027325 0.00012514 -1.80465e-05
          -0.000335422 0.000195634 0.000260771 0.000282253 0.000223264 0.0002789 0.000377785 0.000399467 0.00037719 0.000395448 0.00214602 0.00182967
          0.000441568 1.26722e-05 3.8216e-08 0 0 0 0 0 0 0 -0.00011581 2.94342e-05
          4.99143e-05 -8.66776e-05 0.000224708 0.000351676 0.00036422 0.000365825 0.000641547 0.000384205 0.00347422 0.000327896 0.00320051 3.965e-05
          1.75301e-07 0.000157134 1.07059e-07 6.24927e-10 0 0 0 0 0.00076612 0.000120404 0.00128177 0
          0.000349878 0.00017579 0.00216945 0.00193568 0.00365076 0.000155442 -1.64898e-08 8.72051e-06 5.05037e-08 1.0958e-10 1.41422e-13 0
          0 0 0 0 0 0 0 0 0 0 0 0
          0 0 0 0 0 0 0
        </DataArray>
      </CellData>
      <Points>
        <DataArray type="Float32" Name="Coordinates" NumberOfComponents="3" format="ascii">
          0 0 0 1 0 0 0 1 0 1 1 0
          2 0 0 2 1 0 3 0 0 3 1 0
          4 0 0 4 1 0 5 0 0 5 1 0
          6 0 0 6 1 0 7 0 0 7 1 0
          8 0 0 8 1 0 9 0 0 9 1 0
          10 0 0 10 1 0 0 2 0 1 2 0
          2 2 0 3 2 0 4 2 0 5 2 0
          6 2 0 7 2 0 8 2 0 9 2 0
          10 2 0 0 3 0 1 3 0 2 3 0
          3 3 0 4 3 0 5 3 0 6 3 0
          7 3 0 8 3 0 9 3 0 10 3 0
          0 4 0 1 4 0 2 4 0 3 4 0
          4 4 0 4.5 3 0 4 3.5 0 4.5 3.5 0
          5 3.5 0 4.5 4 0 5 4 0 5.5 3 0
          5.5 3.5 0 6 3.5 0 5.5 4 0 6 4 0
          6.5 3 0 6.5 3.5 0 7 3.5 0 6.5 4 0
          7 4 0 8 4 0 9 4 0 10 4 0
          0 5 0 1 5 0 2 5 0 3 5 0
          3.5 4 0 3 4.5 0 3.5 4.5 0 4 4.5 0
          3.5 5 0 4 5 0 4.5 4.5 0 5 4.5 0
          4.5 5 0 5 5 0 5.5 4.5 0 6 4.5 0
          5.5 5 0 6 5 0 6.5 4.5 0 7 4.5 0
          6.5 5 0 7 5 0 7.5 4 0 7.5 4.5 0
          8 4.5 0 7.5 5 0 8 5 0 9 5 0
          10 5 0 0 6 0 1 6 0 2 6 0
          3 6 0 3 5.5 0 3.5 5.5 0 4 5.5 0
          3.5 6 0 4 6 0 4.5 5.5 0 5 5.5 0
          4.5 6 0 5 6 0 5.5 5.5 0 6 5.5 0
          5.5 6 0 6 6 0 6.5 5.5 0 7 5.5 0
          6.5 6 0 7 6 0 7.5 5.5 0 8 5.5 0
          7.5 6 0 8 6 0 9 6 0 10 6 0
          0 7 0 1 7 0 2 7 0 3 7 0
          3 6.5 0 3.5 6.5 0 4 6.5 0 3.5 7 0
          4 7 0 4.5 6.5 0 5 6.5 0 4.5 7 0
          5 7 0 5.5 6.5 0 6 6.5 0 5.5 7 0
          6 7 0 6.5 6.5 0 7 6.5 0 6.5 7 0
          7 7 0 7.5 6.5 0 8 6.5 0 7.5 7 0
          8 7 0 9 7 0 10 7 0 0 8 0
          1 8 0 2 8 0 3 8 0 4 8 0
          4 7.5 0 4.5 7.5 0 5 7.5 0 4.5 8 0
          5 8 0 5.5 7.5 0 6 7.5 0 5.5 8 0
          6 8 0 6.5 7.5 0 7 7.5 0 6.5 8 0
          7 8 0 8 8 0 9 8 0 10 8 0
          0 9 0 1 9 0 2 9 0 3 9 0
          4 9 0 5 9 0 6 9 0 7 9 0
          8 9 0 9 9 0 10 9 0 0 10 0
          1 10 0 2 10 0 3 10 0 4 10 0
          5 10 0 6 10 0 7 10 0 8 10 0
          9 10 0 10 10 0
        </DataArray>
      </Points>
      <Cells>
        <DataArray type="Int32" Name="connectivity" NumberOfComponents="1" format="ascii">
          0 1 3 2 1 4 5 3 4 6 7 5
          6 8 9 7 8 10 11 9 10 12 13 11
          12 14 15 13 14 16 17 15 16 18 19 17
          18 20 21 19 2 3 23 22 3 5 24 23
          5 7 25 24 7 9 26 25 9 11 27 26
          11 13 28 27 13 15 29 28 15 17 30 29
          17 19 31 30 19 21 32 31 22 23 34 33
          23 24 35 34 24 25 36 35 25 26 37 36
          26 27 38 37 27 28 39 38 28 29 40 39
          29 30 41 40 30 31 42 41 31 32 43 42
          33 34 45 44 34 35 46 45 35 36 47 46
          36 37 48 47 37 49 51 50 49 38 52 51
          51 52 54 53 50 51 53 48 38 55 56 52
          55 39 57 56 56 57 59 58 52 56 58 54
          39 60 61 57 60 40 62 61 61 62 64 63
          57 61 63 59 40 41 65 64 41 42 66 65
          42 43 67 66 44 45 69 68 45 46 70 69
          46 47 71 70 47 72 74 73 72 48 75 74
          74 75 77 76 73 74 76 71 48 53 78 75
          53 54 79 78 78 79 81 80 75 78 80 77
          54 58 82 79 58 59 83 82 82 83 85 84
          79 82 84 81 59 63 86 83 63 64 87 86
          86 87 89 88 83 86 88 85 64 90 91 87
          90 65 92 91 91 92 94 93 87 91 93 89