<?xml version="1.0"?>
<VTKFile type="UnstructuredGrid" version="0.1" byte_order="LittleEndian">
  <UnstructuredGrid>
    <Piece NumberOfCells="100" NumberOfPoints="121">
      <CellData Scalars="wetting potential" Vectors="wetting-velocity">
        <DataArray type="Float32" Name="wetting potential" NumberOfComponents="1" format="ascii">
          100189 100474 100712 100932 101130 101285 101633 102799 101026 100201 100213 100485
          100717 100937 101140 101276 101421 101463 100755 100194 100277 100506 100725 100947
          101168 101266 101327 101190 100624 100173 100360 100529 100731 100958 101227 101266
          101264 101046 100525 100149 100291 101520 102347 101907 101354 101275 101223 100940
          100439 100126 100192 102372 103770 102835 101429 101281 101200 100817 100360 100106
          100132 100476 100975 103688 103932 103823 102940 100586 100291 100091 100115 100352
          100600 104755 106057 106039 104726 100439 100247 100082 100110 100321 100519 100856
          102121 102094 100774 100395 100234 100079 100108 100317 100517 100786 101197 101162
          100696 100408 100235 100079
        </DataArray>
        <DataArray type="Float32" Name="wetting pressure" NumberOfComponents="1" format="ascii">
          193384 193669 193907 194127 194325 194480 194828 195994 194221 193396 183598 183870
          184102 184322 184525 184661 184806 184848 184140 183579 173852 174081 174300 174522
          174743 174841 174902 174766 174199 173748 164125 164294 164496 164723 164992 165030
          165029 164811 164290 163914 154246 155475 156302 155862 155309 155230 155178 154895
          154394 154081 144337 146517 147915 146980 145574 145426 145345 144962 144505 144251
          134467 134811 135310 138023 138267 138158 137275 134921 134626 134426 124640 124877
          125125 129280 130582 130564 129251 124964 124772 124607 114825 115036 115234 115571
          116836 116809 115489 115110 114949 114794 105013 105222 105422 105691 106102 106067
          105601 105313 105140 104984
        </DataArray>
        <DataArray type="Float32" Name="nonwetting pressure" NumberOfComponents="1" format="ascii">
          193884 194169 194407 194627 194825 194981 195383 196716 194803 193899 184098 184370
          184602 184822 185025 185161 185312 185440 184660 184079 174355 174581 174800 175022
          175243 175341 175404 175346 174718 174249 164657 164794 164996 165223 165492 165530
          165532 165392 164811 164414 154798 160477 161306 160863 155824 155730 155682 155477
          154917 154581 144897 147351 148759 147606 146109 145926 145849 145547 145028 144751
          134973 135395 135953 143031 143283 143173 142284 135508 135147 134926 125140 125397
          125711 130209 131508 131490 130180 125552 125288 125107 115325 115538 115770 116272
          117617 117591 116204 115648 115450 115294 105513 105722 105927 106218 106697 106662
          106130 105818 105640 105484
        </DataArray>
        <DataArray type="Float32" Name="nonwetting potential" NumberOfComponents="1" format="ascii">
          57819.5 58103.8 58342.5 58562.2 58759.9 58915.9 59317.9 60651.1 58737.8 57834.4 62355.6 62627.9
          62859.8 63080.3 63283.2 63418.6 63569.5 63697.7 62917.6 62336.9 66935.8 67161.9 67380 67602.8
          67823.5 67921.3 67984.9 67926.3 67298.1 66829 71560.4 71696.7 71899.1 72125.8 72395.1 72433.6
          72434.6 72294.7 71713.9 71317.5 76023.2 81702.3 82531.7 82088.9 77049.6 76956 76907.2 76702.9
          76142.7 75807 80445.2 82899.3 84307.2 83153.8 81657.1 81474.7 81397.7 81095 80576.6 80299.7
          84843.5 85266.4 85823.9 92901.8 93153.4 93044.3 92155.4 85379.1 85017.9 84797 89333.9 89590.3
          89904.4 94402.9 95701.1 95683.8 94373.5 89745.9 89481.7 89300.3 93841.1 94054 94285.9 94787.8
          96132.7 96106.7 94720.1 94163.6 93966.4 93810.5 98351.8 98560.3 98765.3 99056.9 99536 99500.3
          98968.7 98656.9 98478.9 98322.7
        </DataArray>
        <DataArray type="Float32" Name="capillary pressure" NumberOfComponents="1" format="ascii">
          500 500 500 500 500 500.455 554.075 721.449 581.128 503.171 500.001 500
          500 500 500 500 505.189 591.539 520.078 500.066 503.43 500 500 500
          500 500 502.585 580.277 518.761 500.058 532.165 500.005 500 500 500.436 500
          502.8 580.881 520.89 500.08 551.549 5001.37 5004.21 5000.9 515.106 500.002 503.43 582.459
          522.75 500.107 559.497 834.45 843.805 625.891 534.429 500.143 504.224 584.543 522.911 500.119
          505.715 584.612 643.194 5008.21 5015.09 5015.27 5009.86 587.5 520.623 500.101 500.247 519.773
          585.612 929.798 925.836 925.843 929.157 588.025 516.629 500.073 500 501.808 536.151 700.814
          780.748 782.036 714.866 537.976 501.775 500 500 500.003 504.42 527.158 594.888 595.093
          528.699 505.199 500.004 500
        </DataArray>
        <DataArray type="Float32" Name="wetting-velocity" NumberOfComponents="3" format="ascii">
          -1.6569e-05 -1.17638e-06 0 -1.30743e-05 -5.70965e-07 0 -1.14591e-05 -2.36636e-07 0 -1.04358e-05 -2.75007e-07 0
          -8.81277e-06 -5.36499e-07 0 -7.95854e-06 4.70937e-07 0 -4.45653e-06 5.57475e-06 0 1.30935e-07 2.90916e-06 0
          6.40782e-06 5.64049e-06 0 1.52804e-05 3.34749e-07 0 -1.74423e-05 -4.26283e-06 0 -1.26043e-05 -1.64507e-06 0
          -1.13111e-05 -6.16732e-07 0 -1.05857e-05 -7.69242e-07 0 -8.45803e-06 -1.91761e-06 0 -6.81964e-06 9.67453e-07 0
          -3.67892e-06 9.9176e-06 0 3.52072e-06 5.34191e-06 0 1.4759e-05 9.94266e-06 0 2.06797e-05 1.35843e-06 0
          -1.83648e-05 -5.77867e-06 0 -1.09753e-05 -2.18388e-06 0 -1.10212e-05 -7.01616e-07 0 -1.10862e-05 -1.01451e-06 0
          -7.96267e-06 -4.29794e-06 0 -3.92734e-06 5.11106e-07 0 1.24177e-07 7.31687e-06 0 5.35672e-06 3.83077e-06 0
          1.27364e-05 7.52419e-06 0 1.76485e-05 2.23139e-06 0 -1.19424e-05 -1.2907e-06 0 -7.92991e-06 -1.11966e-06 0
          -1.07261e-05 -3.37567e-07 0 -1.23587e-05 -5.29758e-07 0 -7.65832e-06 -8.2182e-06 0 -9.24343e-07 -4.76842e-07 0
          2.60709e-06 4.86858e-06 0 5.92529e-06 2.39922e-06 0 1.06484e-05 5.89491e-06 0 1.47376e-05 2.35908e-06 0
          -4.95019e-06 2.93332e-06 0 -8.18831e-09 -9.92368e-09 0 -9.62918e-10 -1.60916e-08 0 3.85733e-09 -1.16033e-08 0
          1.64434e-06 -7.45373e-06 0 2.89777e-06 -7.87769e-07 0 4.57169e-06 2.95091e-06 0 6.41481e-06 2.11958e-06 0
          9.02231e-06 5.0847e-06 0 1.22189e-05 2.14462e-06 0 -2.8948e-06 3.05573e-06 0 -2.10733e-07 1.17842e-06 0
          -7.01419e-08 7.33357e-07 0 3.4493e-06 -1.05392e-08 0 5.78547e-06 -2.17679e-06 0 4.30681e-06 -3.2114e-07 0
          6.38749e-06 1.03923e-06 0 7.17395e-06 3.13153e-06 0 7.51533e-06 4.57594e-06 0 1.00986e-05 1.75848e-06 0
          -8.09373e-06 2.30404e-06 0 -2.94575e-06 3.74604e-06 0 -6.83837e-07 2.83355e-06 0 -1.39852e-08 -8.42698e-09 0
          -3.33765e-10 -2.44499e-08 0 2.43167e-09 -2.4824e-08 0 1.37465e-08 -1.71366e-08 0 1.69399e-06 3.24782e-06 0
          5.58267e-06 3.66187e-06 0 8.43815e-06 1.22568e-06 0 -1.03852e-05 1.03925e-06 0 -6.13526e-06 3.77701e-06 0
          -1.52484e-06 3.5015e-06 0 -8.399e-08 2.92913e-07 0 -3.67152e-08 2.62409e-07 0 3.80075e-08 2.6253e-07 0
          8.62118e-08 2.8835e-07 0 1.16833e-06 1.98168e-06 0 4.49989e-06 2.02505e-06 0 7.46033e-06 5.77164e-07 0
          -1.06715e-05 3.54729e-07 0 -8.22368e-06 1.42906e-06 0 -3.23398e-06 1.44554e-06 0 -3.76682e-07 1.79588e-06 0
          -1.89091e-07 1.16542e-06 0 2.12335e-07 1.15592e-06 0 3.62673e-07 1.81977e-06 0 2.57602e-06 3.3562e-07 0
          6.1992e-06 4.44302e-07 0 7.74841e-06 1.37837e-07 0 -1.06163e-05 9.55929e-08 0 -9.98555e-06 2.19629e-07 0
          -9.39513e-06 4.41868e-08 0 -6.57581e-06 1.50296e-06 0 -1.82104e-06 9.02991e-07 0 2.31067e-06 8.93373e-07 0
          7.00092e-06 1.53141e-06 0 8.89495e-06 -4.11384e-07 0 7.97849e-06 -8.30108e-08 0 7.8551e-06 2.11249e-08 0
        </DataArray>
        <DataArray type="Float32" Name="non-wetting-velocity" NumberOfComponents="3" format="ascii">
          0 -2.76416e-19 0 0 0 0 0 0 0 -1.39672e-36 0 0
          -2.3101e-13 0 0 -7.23108e-07 -1.39934e-20 0 -1.62977e-05 -2.83925e-08 0 4.35378e-06 -5.8594e-05 0
          2.40605e-05 -1.76431e-06 0 4.13225e-06 -4.2161e-14 0 -1.29638e-20 -5.77087e-09 0 0 -1.8049e-31 0
          0 0 0 0 0 0 -2.09319e-22 -3.57587e-27 0 -3.27206e-10 -1.39989e-20 0
          -7.42647e-07 -3.07814e-08 0 3.37951e-06 -8.72472e-05 0 4.19015e-06 -2.48197e-06 0 6.8316e-08 -7.05147e-14 0
          -3.36242e-10 -4.06503e-06 0 -4.33169e-33 -1.4123e-17 0 0 0 0 -8.69047e-29 0 0
          -5.95347e-26 -1.19825e-11 0 -1.71987e-11 -5.51395e-24 0 -9.50946e-12 -5.34993e-09 0 2.55707e-06 -5.50057e-05 0
          2.60239e-06 -1.65274e-06 0 4.5333e-08 -1.01914e-13 0 -2.46218e-07 -1.20006e-05 0 -1.44767e-19 -7.20284e-17 0
          0 -1.77418e-15 0 -3.52964e-13 -1.6101e-17 0 -3.52964e-13 -4.76455e-07 0 -3.2031e-13 -9.93992e-19 0
          2.30163e-11 -8.35523e-09 0 2.36915e-06 -5.37549e-05 0 2.42143e-06 -2.12061e-06 0 5.23014e-08 -2.49106e-13 0
          -6.43542e-07 -2.0448e-05 0 -5.11092e-17 -1.19001e-08 0 -1.61577e-17 -1.75798e-08 0 2.25925e-17 -8.19433e-09 0
          4.8082e-09 -4.9237e-06 0 4.8082e-09 -4.16377e-13 0 6.26028e-11 -1.53824e-08 0 2.35152e-06 -5.60068e-05 0
          2.40808e-06 -2.41808e-06 0 5.66215e-08 -4.1231e-13 0 -3.24461e-05 -1.25482e-05 0 -6.73536e-05 -5.49076e-05 0
          -1.9913e-05 -4.44643e-05 0 2.78043e-05 -8.19434e-09 0 1.23139e-05 -4.44726e-06 0 9.91388e-08 -5.07414e-13 0
          1.73357e-10 -9.98828e-09 0 2.29028e-06 -5.82858e-05 0 2.33777e-06 -2.18546e-06 0 4.76605e-08 -3.81121e-13 0
          -2.08348e-06 -4.15175e-08 0 -6.3067e-06 -5.67635e-05 0 -4.22394e-06 -9.43569e-05 0 -4.84321e-15 -1.47999e-08 0
          -2.72782e-16 -2.4844e-08 0 1.96335e-15 -2.57317e-08 0 8.97806e-15 -2.18128e-08 0 1.73854e-06 -6.10856e-05 0
          1.76661e-06 -1.49192e-06 0 2.80758e-08 -1.99136e-13 0 -2.88141e-08 -2.25654e-12 0 -1.4825e-06 -1.8688e-06 0
          -5.7118e-05 -5.78041e-05 0 -9.43333e-05 -1.54408e-05 0 -3.81543e-05 -2.15165e-05 0 3.95238e-05 -2.11371e-05 0
          9.62906e-05 -1.46109e-05 0 5.86023e-05 -4.05668e-05 0 1.33301e-06 -5.39914e-07 0 1.23348e-08 -5.47781e-14 0
          -1.97527e-11 -6.73248e-23 0 -1.42483e-07 -9.70676e-10 0 -6.60382e-06 -7.90939e-06 0 -3.0106e-05 -4.85052e-05 0
          -2.30895e-05 -9.67664e-05 0 2.60709e-05 -9.63579e-05 0 3.28653e-05 -5.78963e-05 0 7.48828e-06 -9.17524e-06 0
          1.38696e-07 -8.96537e-10 0 1.36817e-11 -1.06268e-23 0 -8.78359e-20 -3.60943e-33 0 -2.75691e-10 -3.8717e-18 0
          -7.90025e-08 -1.56003e-08 0 -2.66536e-06 -3.30792e-05 0 -2.43671e-06 -0.000109521 0 3.00207e-06 -0.000109493 0
          2.94999e-06 -4.33072e-05 0 9.82374e-08 -1.27603e-08 0 3.88102e-10 -8.1194e-18 0 1.4338e-19 -6.28338e-38 0
        </DataArray>
        <DataArray type="Float32" Name="wetting saturation" NumberOfComponents="1" format="ascii">
          1 1 1 1 1 0.997169 0.732625 0.33188 0.634425 0.980595 0.999991 1
          1 1 1 0.999997 0.969392 0.603433 0.887912 0.999594 0.978484 1 1 1
          1 1 0.984597 0.639728 0.894918 0.999642 0.827251 0.99997 1 1 0.997243 1
          0.983329 0.637748 0.884021 0.99951 0.744223 0.999448 0.998313 0.999639 0.913382 0.999988 0.979644 0.632575
          0.874693 0.999347 0.713301 0.214781 0.207815 0.509312 0.818435 0.999128 0.975023 0.625827 0.873993 0.999281
          0.966169 0.624957 0.469259 0.996718 0.993985 0.99391 0.996059 0.616417 0.885675 0.999393 0.998515 0.890094
          0.62241 0.155416 0.157425 0.157422 0.155739 0.614769 0.906466 0.999562 1 0.989209 0.811028 0.362801
          0.262428 0.261135 0.3418 0.802832 0.989407 1 1 0.999982 0.97393 0.853324 0.593707 0.593098
          0.845897 0.969432 0.999977 1
        </DataArray>
        <DataArray type="Float32" Name="nonwetting saturation" NumberOfComponents="1" format="ascii">
          4.56324e-12 8.88178e-16 -2.36402e-11 -1.13574e-10 7.9947e-11 0.00283081 0.267375 0.66812 0.365575 0.0194054 9.20387e-06 -2.18465e-10
          -2.47695e-10 -4.45739e-10 -6.30273e-10 2.81471e-06 0.0306076 0.396567 0.112088 0.000405943 0.021516 9.71858e-10 -3.78802e-10 -5.85598e-10
          2.11288e-08 2.05161e-07 0.0154026 0.360272 0.105082 0.000357625 0.172749 2.98976e-05 -2.81018e-10 -5.18745e-11 0.00275698 3.97871e-08
          0.0166706 0.362252 0.115979 0.000490093 0.255777 0.000552057 0.00168746 0.000360951 0.0866179 1.21785e-05 0.0203557 0.367425
          0.125307 0.000652907 0.286699 0.785219 0.792185 0.490688 0.181565 0.000871921 0.0249774 0.374173 0.126007 0.000718931
          0.0338307 0.375043 0.530741 0.00328191 0.00601498 0.00608961 0.00394059 0.383583 0.114325 0.000607496 0.0014848 0.109906
          0.37759 0.844584 0.842575 0.842578 0.844261 0.385231 0.0935344 0.000438388 4.7004e-07 0.0107908 0.188972 0.637199
          0.737572 0.738865 0.6582 0.197168 0.0105927 2.54582e-07 1.76269e-10 1.79697e-05 0.0260699 0.146676 0.406293 0.406902
          0.154103 0.0305678 2.3298e-05 4.5649e-12
        </DataArray>
      </CellData>
      <Points>
        <DataArray type="Float32" Name="Coordinates" NumberOfComponents="3" format="ascii">
          0 0 0 2 0 0 0 1 0 2 1 0
          4 0 0 4 1 0 6 0 0 6 1 0
          8 0 0 8 1 0 10 0 0 10 1 0
          12 0 0 12 1 0 14 0 0 14 1 0
          16 0 0 16 1 0 18 0 0 18 1 0
          20 0 0 20 1 0 0 2 0 2 2 0
          4 2 0 6 2 0 8 2 0 10 2 0
          12 2 0 14 2 0 16 2 0 18 2 0
          20 2 0 0 3 0 2 3 0 4 3 0
          6 3 0 8 3 0 10 3 0 12 3 0
          14 3 0 16 3 0 18 3 0 20 3 0
          0 4 0 2 4 0 4 4 0 6 4 0
          8 4 0 10 4 0 12 4 0 14 4 0
          16 4 0 18 4 0 20 4 0 0 5 0
          2 5 0 4 5 0 6 5 0 8 5 0
          10 5 0 12 5 0 14 5 0 16 5 0
          18 5 0 20 5 0 0 6 0 2 6 0
          4 6 0 6 6 0 8 6 0 10 6 0
          12 6 0 14 6 0 16 6 0 18 6 0
          20 6 0 0 7 0 2 7 0 4 7 0
          6 7 0 8 7 0 10 7 0 12 7 0
          14 7 0 16 7 0 18 7 0 20 7 0
          0 8 0 2 8 0 4 8 0 6 8 0
          8 8 0 10 8 0 12 8 0 14 8 0
          16 8 0 18 8 0 20 8 0 0 9 0
          2 9 0 4 9 0 6 9 0 8 9 0
          10 9 0 12 9 0 14 9 0 16 9 0
          18 9 0 20 9 0 0 10 0 2 10 0
          4 10 0 6 10 0 8 10 0 10 10 0
          12 10 0 14 10 0 16 10 0 18 10 0
          20 10 0
        </DataArray>
      </Points>
      <Cells>
        <DataArray type="Int32" Name="connectivity" NumberOfComponents="1" format="ascii">
          0 1 3 2 1 4 5 3 4 6 7 5
          6 8 9 7 8 10 11 9 10 12 13 11
          12 14 15 13 14 16 17 15 16 18 19 17
          18 20 21 19 2 3 23 22 3 5 24 23
          5 7 25 24 7 9 26 25 9 11 27 26
          11 13 28 27 13 15 29 28 15 17 30 29
          17 19 31 30 19 21 32 31 22 23 34 33
          23 24 35 34 24 25 36 35 25 26 37 36
          26 27 38 37 27 28 39 38 28 29 40 39
          29 30 41 40 30 31 42 41 31 32 43 42
          33 34 45 44 34 35 46 45 35 36 47 46
          36 37 48 47 37 38 49 48 38 39 50 49
          39 40 51 50 40 41 52 51 41 42 53 52
          42 43 54 53 44 45 56 55 45 46 57 56
          46 47 58 57 47 48 59 58 48 49 60 59
          49 50 61 60 50 51 62 61 51 52 63 62
          52 53 64 63 53 54 65 64 55 56 67 66
          56 57 68 67 57 58 69 68 58 59 70 69
          59 60 71 70 60 61 72 71 61 62 73 72
          62 63 74 73 63 64 75 74 64 65 76 75
          66 67 78 77 67 68 79 78 68 69 80 79
          69 70 81 80 70 71 82 81 71 72 83 82
          72 73 84 83 73 74 85 84 74 75 86 85
          75 76 87 86 77 78 89 88 78 79 90 89
          79 80 91 90 80 81 92 91 81 82 93 92
          82 83 94 93 83 84 95 94 84 85 96 95
          85 86 97 96 86 87 98 97 88 89 100 99
          89 90 101 100 90 91 102 101 91 92 103 102
          92 93 104 103 93 94 105 104 94 95 106 105
          95 96 107 106 96 97 108 107 97 98 109 108
          99 100 111 110 100 101 112 111 101 102 113 112
          102 103 114 113 103 104 115 114 104 105 116 115
          105 106 117 116 106 107 118 117 107 108 119 118
          108 109 120 119
        </DataArray>
        <DataArray type="Int32" Name="offsets" NumberOfComponents="1" format="ascii">
          4 8 12 16 20 24 28 32 36 40 44 48
          52 56 60 64 68 72 76 80 84 88 92 96
          100 104 108 112 116 120 124 128 132 136 140 144
          148 152 156 160 164 168 172 176 180 184 188 192
          196 200 204 208 212 216 220 224 228 232 236 240
          244 248 252 256 260 264 268 272 276 280 284 288
          292 296 300 304 308 312 316 320 324 328 332 336
          340 344 348 352 356 360 364 368 372 376 380 384
          388 392 396 400
        </DataArray>
        <DataArray type="UInt8" Name="types" NumberOfComponents="1" format="ascii">
          9 9 9 9 9 9 9 9 9 9 9 9
          9 9 9 9 9 9 9 9 9 9 9 9
          9 9 9 9 9 9 9 9 9 9 9 9
          9 9 9 9 9 9 9 9 9 9 9 9
          9 9 9 9 9 9 9 9 9 9 9 9
          9 9 9 9 9 9 9 9 9 9 9 9
          9 9 9 9 9 9 9 9 9 9 9 9
          9 9 9 9 9 9 9 9 9 9 9 9
          9 9 9 9
        </DataArray>
      </Cells>
    </Piece>
  </UnstructuredGrid>
</VTKFile>
