<?xml version="1.0"?>
<VTKFile type="UnstructuredGrid" version="0.1" byte_order="LittleEndian">
  <UnstructuredGrid>
    <Piece NumberOfCells="163" NumberOfPoints="194">
      <CellData Scalars="wetting pressure">
        <DataArray type="Float32" Name="wetting pressure" NumberOfComponents="1" format="ascii">
          265423 270389 271737 270594 267471 262557 255819 247013 235609 220506 261873 264198
          264418 262765 259451 254571 248077 239801 229498 216985 260123 260112 258970 256599
          252996 248198 242116 234617 225599 215299 259009 257157 254752 251665 250035 247917
          245502 247625 245582 243022 240792 243237 240176 237065 235187 238121 230952 222980
          214293 258146 254754 251216 249429 247519 245500 247460 245504 243384 241509 243516
          241166 238849 237219 239409 236373 233745 232409 234891 230754 227227 226248 229712
          221075 213567 257346 252497 247850 245555 243498 241432 243566 241494 239585 237550
          239406 237651 235611 233835 235733 233440 231130 229703 231822 228622 225103 223496
          227155 219124 212848 256466 250039 244199 241492 239249 236859 239163 237202 235365
          233003 234852 233618 231836 229608 231287 229948 227894 225035 227724 224785 221593
          219298 222105 216493 211931 255325 246994 239809 233909 232101 230321 226698 228692
          228641 226836 222598 224736 224279 221690 218080 220347 216587 213089 210692 253545
          242804 234133 227256 221865 217391 213408 210271 208584 208818 249974 236543 226662
          219119 213249 208574 204892 202504 202158 205197
        </DataArray>
        <DataArray type="Float32" Name="nonwetting pressure" NumberOfComponents="1" format="ascii">
          265423 270389 271737 270594 267471 262557 255819 247013 235609 220506 261873 264198
          264418 262765 259451 254571 248077 239801 229498 216985 260123 260112 258970 256599
          252996 248198 242116 234617 225599 215299 259009 257157 254752 251665 250035 247917
          245502 247625 245582 243022 240792 243237 240176 237065 235187 238121 230952 222980
          214293 258146 254754 251216 249429 247519 245500 247460 245885 243926 242257 244051
          241500 239055 237599 239946 236505 233828 232600 235162 230754 227227 226248 229818
          221075 213567 257346 252497 247850 245555 243498 241432 243566 241801 240095 237893
          239579 238121 235993 234162 236100 233736 231348 229886 232088 228738 225103 223496
          227183 219124 212848 256466 250039 244199 241492 239249 236859 239163 237298 235593
          233143 234899 233893 232097 229786 231479 230159 228005 225035 227840 224785 221593
          219298 222105 216493 211931 255325 246994 239809 233909 232101 230381 226698 228692
          228733 226870 222598 224736 224279 221690 218080 220347 216587 213089 210692 253545
          242804 234133 227256 221865 217391 213408 210271 208584 208818 249974 236543 226662
          219119 213249 208574 204892 202504 202158 205197
        </DataArray>
        <DataArray type="Float32" Name="wetting saturation" NumberOfComponents="1" format="ascii">
          1 1 1 1 1 1 1 1 1 1 1 1
          1 1 1 1 1 1 1 1 1 1 1 1
          1 1 1 1 1 1 1 1 1 1 1 1
          1 1 1 1 1 1 1 1 1 1 1 1
          1 1 1 1 1 1 1 1 0.961858 0.945725 0.925291 0.946499
          0.96663 0.979383 0.961957 0.946375 0.986777 0.991632 0.980928 0.972905 1 1 1 0.989417
          1 1 1 1 1 1 1 1 1 0.969251 0.94899 0.965684
          0.98272 0.952996 0.961802 0.967345 0.963266 0.970403 0.97822 0.981759 0.973407 0.988396 1 1
          0.997125 1 1 1 1 1 1 1 1 1 0.990376 0.977258
          0.986052 0.995306 0.972559 0.973944 0.982196 0.980872 0.978913 0.988957 1 0.988399 1 1
          1 1 1 1 1 1 1 1 1 0.993901 1 1
          0.990821 0.9966 1 1 1 1 1 1 1 1 1 1
          1 1 1 1 1 1 1 1 1 1 1 1
          1 1 1 1 1 1 1
        </DataArray>
        <DataArray type="Float32" Name="C^w from cellData" NumberOfComponents="1" format="ascii">
          200 200 200 200 200 200 200 200 200 200 200 200
          200 200 200 200 200 200 200 200 200 200 200 200
          200 200 200 200 200 200 200 200 200 200 200 200
          199.857 199.959 199.998 199.998 199.987 200.025 199.996 199.996 199.993 200.045 200 200
          200 200 200 200 200 199.804 199.788 200 192.558 189.403 185.362 189.532
          193.328 195.759 192.364 189.408 197.155 197.591 195.913 194.444 199.263 199.999 199.432 197.101
          200 200 200 200 200 200 199.906 199.911 200 193.756 189.908 193.093
          196.363 190.633 192.296 193.338 192.584 193.926 195.333 195.432 194.464 196.801 199.613 199.995
          198.252 200 200 200 200 200 199.996 199.935 199.973 199.996 197.788 195.296
          196.824 198.545 194.354 194.567 195.523 195.793 195.224 196.924 199.659 196.816 199.843 199.999
          199.999 199.999 200 200 200 200 200 200 199.738 198.242 199.871 200
          197.469 198.171 199.98 199.752 199.798 200 200 200 200 200 200 200
          200 200 200 200 200 200 200 200 200 200 200 200
          200 200 200 200 200 200 200
        </DataArray>
        <DataArray type="Float32" Name="C^n from cellData" NumberOfComponents="1" format="ascii">
          0 0 0 1.01367e-10 5.09707e-10 4.46797e-10 2.27087e-10 1.64074e-11 6.85567e-13 2.55223e-14 0 0
          0 1.87552e-08 1.03567e-07 7.43977e-08 4.85243e-08 4.1157e-09 1.27838e-10 3.14661e-12 0 0 0 1.34831e-06
          8.15784e-06 4.92584e-06 3.69175e-06 6.06052e-07 1.18191e-08 1.9702e-10 0 0 0 4.64904e-05 0.000256825 0.000375435
          0.0037915 0.00288033 0.000195189 0.000156024 0.00192617 0.00225067 0.0001287 0.000112884 0.00105481 0.00130217 7.73744e-05 7.71373e-07
          7.53612e-09 0 0 0 6.9279e-11 0.00139047 0.00208112 4.81458e-10 0.0369183 0.0460419 0.0575719 0.045608
          0.0334708 0.0258386 0.0355714 0.044884 0.0213827 0.0183836 0.0242608 0.0290451 0.012003 0.000376138 0.00690661 0.0192717
          1.86918e-05 9.63475e-08 0 0 0 0 0 0 0 0.0319846 0.0434071 0.0334972
          0.0239814 0.040754 0.0354097 0.0320264 0.0346005 0.0302599 0.0256174 0.0234437 0.0283742 0.0197256 0.00465561 0.000215827
          0.0148599 6.49487e-06 2.31746e-08 0 0 0 0 0 0 0 0.0194103 0.0266511
          0.0214592 0.0164349 0.0290778 0.0280776 0.0231955 0.0241607 0.0250733 0.0193597 0.00386912 0.0196478 0.00185654 4.46033e-05
          4.43735e-05 4.74416e-05 2.51709e-07 6.12348e-10 0 0 0 0 0.0026174 0.0168854 0.00136052 0
          0.0184252 0.0151234 0.000237892 0.00269182 0.00222651 1.5843e-05 1.58029e-05 1.69013e-05 6.4178e-08 7.67588e-11 5.23539e-14 0
          0 0 0 0 0 0 0 0 0 0 0 0
          0 0 0 0 0 0 0
        </DataArray>
        <DataArray type="Float32" Name="capillary pressure" NumberOfComponents="1" format="ascii">
          0 0 0 0 0 0 0 0 0 0 0 0
          0 0 0 0 0 0 0 0 0 0 0 0
          0 0 0 0 0 0 0 0 0 0 0 0
          0 0 0 0 0 0 0 0 0 0 0 0
          0 0 0 0 0 0 0 0 381.426 542.75 747.086 535.017
          333.703 206.168 380.429 536.249 132.234 83.6822 190.711 270.942 0 0 0 105.823
          0 0 0 0 0 0 0 0 0 307.496 510.095 343.162
          172.803 470.034 381.973 326.541 367.334 295.963 217.795 182.402 265.926 116.018 0 0
          28.7206 0 0 0 0 0 0 0 0 0 96.2411 227.42
          139.475 46.9386 274.409 260.557 178.035 191.273 210.863 110.396 0 115.98 0 0
          0 0 0 0 0 0 0 0 0 60.9754 0 0
          91.7673 33.9648 0 0 0 0 0 0 0 0 0 0
          0 0 0 0 0 0 0 0 0 0 0 0
          0 0 0 0 0 0 0
        </DataArray>
        <DataArray type="Float32" Name="wetting density" NumberOfComponents="1" format="ascii">
          1000 1000 1000 1000 1000 1000 1000 1000 1000 1000 1000 1000
          1000 1000 1000 1000 1000 1000 1000 1000 1000 1000 1000 1000
          1000 1000 1000 1000 1000 1000 1000 1000 1000 1000 1000 1000
          1000.01 1000.01 1000 1000 1000 1000 1000 1000 1000 1000 1000 1000
          1000 1000 1000 1000 1000 1000 1000 1000 1000.03 1000.03 1000.03 1000.03
          1000.03 1000.03 1000.03 1000.03 1000.03 1000.03 1000.03 1000.03 1000.02 1000 1000.01 1000.03
          1000 1000 1000 1000 1000 1000 1000 1000 1000 1000.03 1000.03 1000.03
          1000.03 1000.03 1000.03 1000.03 1000.03 1000.03 1000.03 1000.03 1000.03 1000.03 1000.01 1000
          1000.03 1000 1000 1000 1000 1000 1000 1000 1000 1000 1000.03 1000.03
          1000.03 1000.03 1000.03 1000.03 1000.03 1000.03 1000.03 1000.03 1000.01 1000.03 1000 1000
          1000 1000 1000 1000 1000 1000 1000 1000 1000 1000.03 1000 1000
          1000.03 1000.03 1000 1000.01 1000 1000 1000 1000 1000 1000 1000 1000
          1000 1000 1000 1000 1000 1000 1000 1000 1000 1000 1000 1000
          1000 1000 1000 1000 1000 1000 1000
        </DataArray>
        <DataArray type="Float32" Name="nonwetting density" NumberOfComponents="1" format="ascii">
          3.2593 3.32039 3.33697 3.32292 3.28449 3.22404 3.14116 3.03284 2.89256 2.70677 3.21563 3.24423
          3.24694 3.22661 3.18584 3.12581 3.04592 2.94413 2.81739 2.66345 3.1941 3.19397 3.17992 3.15076
          3.10644 3.04742 2.9726 2.88035 2.76942 2.64272 3.1804 3.15762 3.12803 3.09006 3.07001 3.04396
          3.01426 3.04037 3.01524 2.98375 2.95631 2.98638 2.94873 2.91047 2.88737 2.92346 2.83526 2.7372
          2.63035 3.16978 3.12806 3.08453 3.06256 3.03906 3.01423 3.03833 3.01896 2.99486 2.97431 2.99638
          2.96501 2.93494 2.91703 2.94589 2.90357 2.87065 2.85554 2.88705 2.83283 2.78944 2.7774 2.82131
          2.71377 2.62142 3.15994 3.1003 3.04313 3.01491 2.98959 2.96419 2.99044 2.96872 2.94773 2.92064
          2.94139 2.92344 2.89727 2.87475 2.89859 2.8695 2.84013 2.82215 2.84924 2.80803 2.76332 2.74355
          2.78891 2.68977 2.61257 3.14912 3.07006 2.99822 2.96492 2.93733 2.90793 2.93628 2.91333 2.89235
          2.86222 2.88381 2.87144 2.84934 2.82092 2.84174 2.82551 2.79901 2.76248 2.79698 2.75941 2.72015
          2.69191 2.72644 2.6574 2.60128 3.13508 3.03261 2.94422 2.87165 2.8494 2.82825 2.78294 2.80747
          2.80797 2.78505 2.7325 2.7588 2.75319 2.72134 2.67693 2.70481 2.65857 2.61553 2.58604 3.11318
          2.98106 2.87439 2.78981 2.72348 2.66845 2.61946 2.58086 2.56012 2.563 3.06927 2.90405 2.78249
          2.68971 2.6175 2.55999 2.5147 2.48532 2.48107 2.51845
        </DataArray>
        <DataArray type="Float32" Name="mobility w_phase" NumberOfComponents="1" format="ascii">
          1000 1000 1000 1000 1000 1000 1000 1000 1000 1000 1000 1000
          1000 1000 1000 1000 1000 1000 1000 1000 1000 1000 1000 1000
          1000 1000 1000 1000 1000 1000 1000 1000 1000 1000 1000 1000
          1000 1000 1000 1000 1000 1000 1000 1000 1000 1000 1000 1000
          1000 1000 1000 1000 1000 1000 1000 1000 961.858 945.725 925.291 946.499
          966.63 979.383 961.957 946.375 986.777 991.632 980.928 972.905 1000 1000 1000 989.417
          1000 1000 1000 1000 1000 1000 1000 1000 1000 969.251 948.99 965.684
          982.72 952.996 961.802 967.345 963.266 970.403 978.22 981.759 973.407 988.396 1000 1000
          997.125 1000 1000 1000 1000 1000 1000 1000 1000 1000 990.376 977.258
          986.052 995.306 972.559 973.944 982.196 980.872 978.913 988.957 1000 988.399 1000 1000
          1000 1000 1000 1000 1000 1000 1000 1000 1000 993.901 1000 1000
          990.821 996.6 1000 1000 1000 1000 1000 1000 1000 1000 1000 1000
          1000 1000 1000 1000 1000 1000 1000 1000 1000 1000 1000 1000
          1000 1000 1000 1000 1000 1000 1000
        </DataArray>
        <DataArray type="Float32" Name="mobility nw_phase" NumberOfComponents="1" format="ascii">
          0 0 0 0 0 0 0 0 0 0 0 0
          0 0 0 0 0 0 0 0 0 0 0 0
          0 0 0 0 0 0 0 0 0 0 0 0
          0 0 0 0 0 0 0 0 0 0 0 0
          0 0 0 0 0 0 0 0 2182.05 3105.01 4274.09 3060.76
          1909.11 1179.51 2176.54 3067.96 756.542 478.772 1091.18 1550.18 0 0 0 605.529
          0 0 0 0 0 0 0 0 0 1759.17 2918.31 1963.31
          988.61 2689.19 2185.43 1868.32 2101.66 1693.38 1246.17 1043.7 1521.55 663.923 0 0
          164.508 0 0 0 0 0 0 0 0 0 550.604 1301.15
          798.02 268.555 1570.04 1490.83 1018.7 1094.41 1206.54 631.864 0 663.786 0 0
          0 0 0 0 0 0 0 0 0 348.954 0 0
          525.186 194.547 0 0 0 0 0 0 0 0 0 0
          0 0 0 0 0 0 0 0 0 0 0 0
          0 0 0 0 0 0 0
        </DataArray>
        <DataArray type="Float32" Name="mass fraction H2O in liquid-phase" NumberOfComponents="1" format="ascii">
          1 1 1 1 1 1 1 1 1 1 1 1
          1 1 1 1 1 1 1 1 1 1 1 1
          1 1 1 1 1 1 1 1 1 1 0.999999 0.999998
          0.999981 0.999986 0.999999 0.999999 0.99999 0.999989 0.999999 0.999999 0.999995 0.999994 1 1
          1 1 1 1 1 0.999993 0.99999 1 0.999928 0.999928 0.999929 0.999928
          0.999929 0.99993 0.99993 0.999929 0.99993 0.999931 0.999932 0.999931 0.99994 0.999998 0.999965 0.999932
          1 1 1 1 1 1 1 1 1 0.999929 0.999929 0.99993
          0.999929 0.99993 0.999931 0.999931 0.999931 0.999931 0.999932 0.999932 0.999932 0.999933 0.999977 0.999999
          0.999933 1 1 1 1 1 1 1 1 1 0.99993 0.999931
          0.999931 0.999931 0.999931 0.999932 0.999932 0.999932 0.999932 0.999933 0.999981 0.999933 0.999991 1
          1 1 1 1 1 1 1 1 0.999987 0.999932 0.999993 1
          0.999933 0.999933 0.999999 0.999987 0.999989 1 1 1 1 1 1 1
          1 1 1 1 1 1 1 1 1 1 1 1
          1 1 1 1 1 1 1
        </DataArray>
        <DataArray type="Float32" Name="mass fraction H2O in gas-phase" NumberOfComponents="1" format="ascii">
          0.00288097 0.00282796 0.00281391 0.00282581 0.00285888 0.00291248 0.00298933 0.0030961 0.00324626 0.00346909 0.0029201 0.00289435
          0.00289194 0.00291016 0.00294741 0.00300402 0.0030828 0.0031894 0.00333288 0.00352551 0.00293978 0.0029399 0.00295289 0.00298023
          0.00302275 0.00308129 0.00315885 0.00326002 0.00339062 0.00355317 0.00295245 0.00297375 0.00300188 0.00303877 0.00305862 0.00308479
          0.00311519 0.00308844 0.00311418 0.00314705 0.00317626 0.00314427 0.00318442 0.00322629 0.0032521 0.00321195 0.00331187 0.00343053
          0.00356989 0.00296234 0.00300185 0.00304421 0.00306606 0.00308977 0.00311523 0.0030905 0.00311517 0.00314237 0.0031668 0.00314066
          0.00317131 0.00320214 0.00322419 0.00319464 0.00323576 0.00327221 0.00329105 0.00325621 0.00331471 0.00336627 0.00338086 0.00332978
          0.00346014 0.00358205 0.00297156 0.00302873 0.00308563 0.00311452 0.00314089 0.00316781 0.00314 0.00316701 0.00319228 0.00321969
          0.00319467 0.00321832 0.00324624 0.00327094 0.00324456 0.00327649 0.0033093 0.0033299 0.00329941 0.00334569 0.00339809 0.00342259
          0.00336734 0.00349101 0.00359418 0.00298178 0.00305856 0.00313185 0.00316703 0.00319678 0.0032291 0.00319792 0.00322443 0.00324964
          0.00328264 0.00325676 0.00327398 0.00329921 0.00333128 0.00330705 0.00332635 0.00335639 0.00339913 0.00335891 0.00340292 0.00345203
          0.00348824 0.00344406 0.00353354 0.00360978 0.00299513 0.00309634 0.0031893 0.0032699 0.00329544 0.00332096 0.00337413 0.00334465
          0.0033454 0.00337209 0.00343643 0.00340367 0.0034106 0.00345052 0.00350777 0.0034716 0.00353199 0.00359011 0.00363105 0.0030162
          0.00314989 0.00326678 0.00336583 0.0034478 0.00351891 0.00358473 0.00363834 0.00366782 0.0036637 0.00305936 0.00323342 0.00337468
          0.0034911 0.0035874 0.003668 0.00373407 0.00377821 0.00378468 0.00372851
        </DataArray>
        <DataArray type="Float32" Name="volume Error" NumberOfComponents="1" format="ascii">
          -4.76202e-12 -2.33383e-12 -2.43813e-12 -3.89452e-12 -2.54799e-12 -1.90012e-12 -8.19664e-12 -9.2808e-12 -2.80337e-12 -1.1037e-12 -4.95209e-12 -2.86521e-12
          -5.76059e-12 -6.7292e-12 -8.7762e-12 -3.90407e-12 -6.13143e-12 -5.75118e-12 -4.25493e-12 -1.59525e-12 1.07325e-12 -2.17354e-13 -2.58674e-12 -5.71967e-12
          -5.77741e-12 -2.8304e-12 6.11122e-13 -3.76826e-12 -1.92657e-12 -1.19177e-12 9.6062e-14 -3.40186e-12 -2.62776e-12 -2.69307e-12 -1.67234e-11 -2.02422e-11
          -0.000140575 -3.90674e-05 -1.72663e-06 -1.72665e-06 -1.21576e-05 2.67417e-05 -4.39779e-06 -4.39778e-06 -6.35809e-06 4.61023e-05 1.67918e-12 -1.4195e-12
          3.88634e-13 -1.97645e-12 -2.95475e-12 -3.08292e-12 -7.43614e-12 -0.000195232 -0.000210396 1.34837e-13 0.000202648 0.000281878 0.000337501 0.000253752
          1.0701e-05 -0.000111755 -1.98012e-05 0.000149148 -0.000194347 -0.000732823 -0.000269607 -0.000132352 -0.000729872 -1.0343e-06 -0.000563864 -0.000782859
          1.47587e-12 -4.39868e-12 -2.22516e-13 6.28358e-13 2.68488e-12 3.32728e-12 -9.35823e-05 -8.90745e-05 1.11893e-11 -8.79487e-05 0.000124802 -3.69467e-05
          -0.000175854 4.3575e-05 -5.87779e-05 -0.000126554 -6.33467e-05 -0.000150602 -0.000309438 -0.000928008 -0.00021501 -0.000879886 -0.000384449 -5.24345e-06
          -0.00116771 2.43974e-12 2.64788e-13 1.11064e-12 1.27731e-12 4.29537e-12 -3.54923e-06 -6.46969e-05 -2.67748e-05 -3.54922e-06 -0.000280969 -0.000150969
          -0.000383908 -0.00051038 -0.000153874 -0.000219412 -0.000924919 -0.000380858 -0.000561868 -0.000868856 -0.000338533 -0.0008659 -0.000155967 -1.26341e-06
          -1.26341e-06 -1.26341e-06 2.72818e-12 1.93179e-12 3.04673e-13 9.10411e-13 2.39556e-12 4.57048e-12 -0.000260533 -0.000533568 -0.000127708 1.60218e-11
          -0.000693516 -0.00114504 -2.02955e-05 -0.000246657 -0.000200183 3.01525e-10 2.97825e-10 2.93996e-10 4.88426e-12 2.30721e-12 3.46359e-12 2.15855e-13
          4.40498e-12 3.64642e-12 2.19119e-12 4.58433e-12 7.54916e-12 4.83544e-12 6.90206e-12 2.12119e-12 3.10729e-12 2.4647e-12 3.84856e-12 6.09929e-12
          3.58596e-12 5.03403e-13 3.28218e-12 2.61571e-12 9.52044e-13 2.35764e-12 1.75482e-12
        </DataArray>
        <DataArray type="Float32" Name="Error Correction" NumberOfComponents="1" format="ascii">
          0 0 0 0 0 0 0 0 0 0 0 0
          0 0 0 0 0 0 0 0 0 0 0 0
          0 0 0 0 0 0 0 0 0 0 0 0
          0 0 0 0 0 0 0 0 0 0 0 0
          0 0 0 0 0 0 0 0 0 0 0 0
          0 0 0 0 0 0 0 0 0 0 0 0
          0 0 0 0 0 0 0 0 0 0 0 0
          0 0 0 0 0 0 0 0 0 0 0 0
          0 0 0 0 0 0 0 0 0 0 0 0
          0 0 0 0 0 0 0 0 0 0 0 0
          0 0 0 0 0 0 0 0 0 0 0 0
          0 0 0 0 0 0 0 0 0 0 0 0
          0 0 0 0 0 0 0 0 0 0 0 0
          0 0 0 0 0 0 0
        </DataArray>
        <DataArray type="Float32" Name="dv_dp" NumberOfComponents="1" format="ascii">
          0 0 0 0 0 0 0 0 0 0 0 0
          0 0 0 0 0 0 0 0 0 0 0 0
          0 0 0 0 0 0 0 0 0 0 0 0
          0 0 0 0 0 0 0 0 0 0 0 0
          0 0 0 0 0 0 0 0 -5.03408e-08 -6.38429e-08 -8.06151e-08 -6.32183e-08
          -4.73586e-08 -3.73e-08 -5.15519e-08 -6.38903e-08 -3.15355e-08 -2.78332e-08 -3.6554e-08 -4.29244e-08 0 0 0 -2.94142e-08
          0 0 0 0 0 0 0 0 0 -4.524e-08 -6.18306e-08 -4.86082e-08
          -3.45809e-08 -5.86894e-08 -5.17775e-08 -4.74926e-08 -5.06369e-08 -4.50226e-08 -3.87806e-08 -3.58244e-08 -4.27434e-08 -2.96678e-08 0 0
          0 0 0 0 0 0 0 0 0 0 -2.85698e-08 -3.9441e-08
          -3.22294e-08 -2.44885e-08 -4.3354e-08 -4.237e-08 -3.56429e-08 -3.67299e-08 -3.81658e-08 -2.78428e-08 0 -2.87604e-08 0 0
          0 0 0 0 0 0 0 0 0 -2.51135e-08 0 0
          -2.73592e-08 0 0 0 0 0 0 0 0 0 0 0
          0 0 0 0 0 0 0 0 0 0 0 0
          0 0 0 0 0 0 0
        </DataArray>
        <DataArray type="Float32" Name="dV_dC1" NumberOfComponents="1" format="ascii">
          0.001 0.001 0.001 0.001 0.001 0.001 0.001 0.001 0.001 0.001 0.001 0.001
          0.001 0.001 0.001 0.001 0.001 0.001 0.001 0.001 0.001 0.001 0.001 0.001
          0.001 0.001 0.001 0.001 0.001 0.001 0.001 0.001 0.001 0.001 0.001 0.001
          0.001 0.001 0.001 0.001 0.001 0.001 0.001 0.001 0.001 0.001 0.001 0.001
          0.001 0.001 0.001 0.001 0.001 0.001 0.001 0.001 0.000975996 0.000976012 0.000976032 0.000976012
          0.000975992 0.000975979 0.000975996 0.000976011 0.000975971 0.000975965 0.000975976 0.000975984 0.001 0.001 0.001 0.000975966
          0.001 0.001 0.001 0.001 0.001 0.001 0.001 0.001 0.001 0.000975989 0.000976009 0.000975992
          0.000975975 0.000976004 0.000975995 0.00097599 0.000975994 0.000975986 0.000975978 0.000975974 0.000975983 0.000975966 0.001 0.001
          0.001 0.001 0.001 0.001 0.001 0.001 0.001 0.001 0.001 0.001 0.000975967 0.00097598
          0.000975971 0.000975962 0.000975984 0.000975983 0.000975974 0.000975976 0.000975977 0.000975964 0.001 0.000975965 0.001 0.001
          0.001 0.001 0.001 0.001 0.001 0.001 0.001 0.001 0.001 0.000975961 0.001 0.001
          0.000975963 0.001 0.001 0.001 0.001 0.001 0.001 0.001 0.001 0.001 0.001 0.001
          0.001 0.001 0.001 0.001 0.001 0.001 0.001 0.001 0.001 0.001 0.001 0.001
          0.001 0.001 0.001 0.001 0.001 0.001 0.001
        </DataArray>
        <DataArray type="Float32" Name="dV_dC2" NumberOfComponents="1" format="ascii">
          0.000621546 0.000621545 0.000621548 0.000621546 0.000621548 0.000621547 0.000621546 0.000621547 0.000621548 0.000621547 0.000621547 0.000621547
          0.000621546 0.000621546 0.000621548 0.000621545 0.000621547 0.000621547 0.000621546 0.000621549 0.000621548 0.000621545 0.000621548 0.000621547
          0.000621547 0.000621547 0.000621547 0.000621547 0.000621546 0.000621549 0.000621548 0.000621546 0.000621547 0.000621547 0.000621547 0.000621547
          0.000621547 0.000621547 0.000621547 0.000621547 0.000621547 0.000621547 0.000621547 0.000621547 0.000621547 0.000621547 0.000621547 0.000621547
          0.000621548 0.000621547 0.000621547 0.000621548 0.000621549 0.000621547 0.000621547 0.000621546 0.333021 0.335732 0.338089 0.335571
          0.339154 0.34269 0.34487 0.34141 0.346475 0.350561 0.35249 0.348548 0.000621547 0.000621547 0.000621547 0.356793
          0.000621547 0.000621548 0.000621547 0.000621546 0.000621547 0.000621547 0.000621547 0.000621546 0.000621546 0.338753 0.341212 0.34449
          0.341981 0.344126 0.347345 0.350251 0.347226 0.350834 0.3546 0.357203 0.353556 0.358703 0.000621547 0.000621547
          0.172092 0.000621547 0.00062155 0.000621546 0.000621545 0.000621545 0.000621548 0.000621548 0.000621547 0.000621546 0.345375 0.348003
          0.351826 0.348972 0.350713 0.353628 0.357587 0.354658 0.35678 0.360337 0.000621547 0.360634 0.000621547 0.000621547
          0.000621547 0.000621547 0.000621547 0.000621546 0.000621547 0.000621546 0.000621547 0.000621547 0.000621547 0.35601 0.000621547 0.000621547
          0.359062 0.193293 0.000621547 0.000621547 0.000621547 0.000621547 0.000621547 0.000621547 0.000621548 0.000621547 0.000621546 0.000621547
          0.000621546 0.000621545 0.000621546 0.000621548 0.000621546 0.000621548 0.000621547 0.000621547 0.000621547 0.000621546 0.000621546 0.000621547
          0.000621547 0.000621545 0.000621548 0.000621544 0.000621544 0.000621548 0.000621547
        </DataArray>
        <DataArray type="Float32" Name="updEstimate comp 1" NumberOfComponents="1" format="ascii">
          -4.79103e-10 -3.94183e-11 -1.83264e-10 -3.01355e-10 -4.22973e-10 -6.27976e-10 -5.53869e-10 -7.69429e-10 -7.37629e-10 -2.60915e-10 1.87029e-10 -1.33141e-10
          -5.16354e-10 -2.10773e-09 -7.67797e-09 -6.02604e-09 -5.03341e-09 -6.2254e-10 -1.63101e-09 -1.16226e-09 5.09128e-10 -2.41015e-10 -7.51003e-10 -6.83976e-08
          -4.21895e-07 -2.44723e-07 -1.92301e-07 -1.00674e-07 -2.41571e-09 -9.40284e-10 -7.65848e-10 1.60468e-11 -4.48847e-10 -1.18012e-06 -7.96912e-06 -1.08176e-05
          0.00194733 0.00248301 -7.19163e-06 -6.03407e-06 0.00084829 0.00120006 -4.02307e-06 -3.24629e-06 -0.000386527 0.000790464 -1.22233e-05 -1.65655e-07
          -1.37492e-09 -3.12361e-10 -3.61505e-10 4.99295e-10 -6.63095e-09 -0.00296821 -0.00262955 1.1963e-09 0.0774918 0.0664949 -0.0293211 0.0781131
          0.0509658 0.0341503 -0.0806644 -0.0679972 0.0295497 -0.0604279 -0.0959849 -0.0838959 -0.0828487 -6.25723e-05 -0.188801 -0.389332
          -5.74848e-06 -2.35971e-08 6.84882e-10 2.3801e-11 2.04213e-10 5.98333e-10 -0.00374119 -0.00402946 2.41312e-09 0.0718856 -0.0393268 -0.0354605
          0.0592737 -0.126122 -0.149075 -0.164415 -0.127775 -0.155416 -0.162048 -0.363323 -0.179196 -0.770856 -0.1527 1.27454
          -0.431944 -2.46588e-06 -5.56269e-09 -6.25588e-10 1.34578e-10 2.90777e-10 1.6454e-09 -0.00426426 -0.00742284 2.68203e-09 0.0707221 -0.0327201
          -0.0256267 -0.100548 -0.11952 -0.162029 -0.305405 -0.0577243 -0.184836 -1.11076 -0.260444 -1.31801 0.419325 -4.26024
          0.0386557 3.98498 0.187919 2.04167e-10 -1.22591e-09 -8.41587e-10 4.77176e-10 5.57433e-10 -0.106211 -0.550625 -0.0310376 -2.04099e-06
          -0.743158 -0.521307 -0.734624 -0.0630556 0.981241 -3.11663 -0.476798 2.57152 -0.0186432 1.76518e-10 7.78503e-10 5.97159e-10
          -7.90271e-10 -3.12758e-10 6.84353e-10 -5.71084e-08 -2.32742e-07 -0.0984806 3.82253e-10 1.96178e-10 1.49772e-10 1.64904e-09 1.31326e-09 1.66816e-10
          -1.54938e-10 -1.6866e-10 3.67893e-10 2.38075e-10 2.85318e-10 4.55336e-11 -4.96873e-13
        </DataArray>
        <DataArray type="Float32" Name="updEstimate comp 2" NumberOfComponents="1" format="ascii">
          0 0 0 1.7492e-11 8.65781e-11 6.48539e-11 4.69203e-11 4.90199e-12 2.4284e-13 1.03247e-14 0 0
          0 2.40066e-09 1.32252e-08 8.31055e-09 7.00498e-09 1.19341e-09 4.10864e-11 1.14687e-12 0 0 0 1.13241e-07
          7.08263e-07 4.14572e-07 3.18127e-07 1.93028e-07 3.87377e-09 6.66016e-11 0 0 0 1.89632e-06 1.30334e-05 1.76176e-05
          5.58494e-05 5.45933e-05 1.18769e-05 1.00107e-05 7.81211e-05 7.90635e-05 6.81864e-06 5.5983e-06 9.46378e-05 8.85422e-05 2.16383e-05 2.71226e-07
          2.55952e-09 0 0 0 2.41297e-12 -1.61414e-06 -2.27877e-05 -5.29517e-12 -7.36634e-05 -0.000105266 -2.06542e-05 -0.00011603
          -7.73551e-05 -4.51795e-05 0.000230956 0.00016853 -3.37896e-05 -5.12203e-06 0.000286631 0.000233898 0.0019291 0.000108618 0.00248699 0.000406321
          9.24742e-06 3.55921e-08 0 0 0 0 0 0 0 -0.000117004 0.000112542 0.00012625
          -9.92449e-05 0.000341494 0.000435827 0.000499836 0.000381418 0.000452158 0.000514303 0.000655028 0.00053033 0.000717755 0.0025882 7.6629e-05
          0.00508795 3.96071e-06 7.15966e-09 0 0 0 0 0 0 0 -8.01316e-05 0.000106697
          0.000338045 3.64999e-05 0.000363685 0.000499375 0.000658107 0.000576129 0.000832206 0.00189748 0.0035844 0.00119368 0.00197411 -9.50109e-07
          -2.70151e-07 5.95154e-06 1.62313e-07 2.77938e-10 0 0 0 0 0.000922269 0.000553426 0.00129924 0
          0.00100577 0.00525478 9.24536e-07 0.00203428 0.00269182 -2.46884e-07 -8.57828e-08 2.02301e-06 5.19795e-08 4.38511e-11 3.13095e-14 0
          0 0 0 0 0 0 0 0 0 0 0 0
          0 0 0 0 0 0 0
        </DataArray>
      </CellData>
      <Points>
        <DataArray type="Float32" Name="Coordinates" NumberOfComponents="3" format="ascii">
          0 0 0 1 0 0 0 1 0 1 1 0
          2 0 0 2 1 0 3 0 0 3 1 0
          4 0 0 4 1 0 5 0 0 5 1 0
          6 0 0 6 1 0 7 0 0 7 1 0
          8 0 0 8 1 0 9 0 0 9 1 0
          10 0 0 10 1 0 0 2 0 1 2 0
          2 2 0 3 2 0 4 2 0 5 2 0
          6 2 0 7 2 0 8 2 0 9 2 0
          10 2 0 0 3 0 1 3 0 2 3 0
          3 3 0 4 3 0 5 3 0 6 3 0
          7 3 0 8 3 0 9 3 0 10 3 0
          0 4 0 1 4 0 2 4 0 3 4 0
          4 4 0 4.5 3 0 4 3.5 0 4.5 3.5 0
          5 3.5 0 4.5 4 0 5 4 0 5.5 3 0
          5.5 3.5 0 6 3.5 0 5.5 4 0 6 4 0
          6.5 3 0 6.5 3.5 0 7 3.5 0 6.5 4 0
          7 4 0 8 4 0 9 4 0 10 4 0
          0 5 0 1 5 0 2 5 0 3 5 0
          3.5 4 0 3 4.5 0 3.5 4.5 0 4 4.5 0
          3.5 5 0 4 5 0 4.5 4.5 0 5 4.5 0
          4.5 5 0 5 5 0 5.5 4.5 0 6 4.5 0
          5.5 5 0 6 5 0 6.5 4.5 0 7 4.5 0
          6.5 5 0 7 5 0 7.5 4 0 7.5 4.5 0
          8 4.5 0 7.5 5 0 8 5 0 9 5 0
          10 5 0 0 6 0 1 6 0 2 6 0
          3 6 0 3 5.5 0 3.5 5.5 0 4 5.5 0
          3.5 6 0 4 6 0 4.5 5.5 0 5 5.5 0
          4.5 6 0 5 6 0 5.5 5.5 0 6 5.5 0
          5.5 6 0 6 6 0 6.5 5.5 0 7 5.5 0
          6.5 6 0 7 6 0 7.5 5.5 0 8 5.5 0
          7.5 6 0 8 6 0 9 6 0 10 6 0
          0 7 0 1 7 0 2 7 0 3 7 0
          3 6.5 0 3.5 6.5 0 4 6.5 0 3.5 7 0
          4 7 0 4.5 6.5 0 5 6.5 0 4.5 7 0
          5 7 0 5.5 6.5 0 6 6.5 0 5.5 7 0
          6 7 0 6.5 6.5 0 7 6.5 0 6.5 7 0
          7 7 0 7.5 6.5 0 8 6.5 0 7.5 7 0
          8 7 0 9 7 0 10 7 0 0 8 0
          1 8 0 2 8 0 3 8 0 4 8 0
          4 7.5 0 4.5 7.5 0 5 7.5 0 4.5 8 0
          5 8 0 5.5 7.5 0 6 7.5 0 5.5 8 0
          6 8 0 6.5 7.5 0 7 7.5 0 6.5 8 0
          7 8 0 8 8 0 9 8 0 10 8 0
          0 9 0 1 9 0 2 9 0 3 9 0
          4 9 0 5 9 0 6 9 0 7 9 0
          8 9 0 9 9 0 10 9 0 0 10 0
          1 10 0 2 10 0 3 10 0 4 10 0
          5 10 0 6 10 0 7 10 0 8 10 0
          9 10 0 10 10 0
        </DataArray>
      </Points>
      <Cells>
        <DataArray type="Int32" Name="connectivity" NumberOfComponents="1" format="ascii">
          0 1 3 2 1 4 5 3 4 6 7 5
          6 8 9 7 8 10 11 9 10 12 13 11
          12 14 15 13 14 16 17 15 16 18 19 17
          18 20 21 19 2 3 23 22 3 5 24 23
          5 7 25 24 7 9 26 25 9 11 27 26
          11 13 28 27 13 15 29 28 15 17 30 29
          17 19 31 30 19 21 32 31 22 23 34 33
          23 24 35 34 24 25 36 35 25 26 37 36
          26 27 38 37 27 28 39 38 28 29 40 39
          29 30 41 40 30 31 42 41 31 32 43 42
          33 34 45 44 34 35 46 45 35 36 47 46
          36 37 48 47 37 49 51 50 49 38 52 51
          51 52 54 53 50 51 53 48 38 55 56 52
          55 39 57 56 56 57 59 58 52 56 58 54
          39 60 61 57 60 40 62 61 61 62 64 63
          57 61 63 59 40 41 65 64 41 42 66 65
          42 43 67 66 44 45 69 68 45 46 70 69
          46 47 71 70 47 72 74 73 72 48 75 74
          74 75 77 76 73 74 76 71 48 53 78 75
          53 54 79 78 78 79 81 80 75 78 80 77
          54 58 82 79 58 59 83 82 82 83 85 84
          79 82 84 81 59 63 86 83 63 64 87 86
          86 87 89 88 83 86 88 85 64 90 91 87
          90 65 92 91 91 92 94 93 87 91 93 89
          65 66 95 94 66 67 96 95 68 69 98 97
          69 70 99 98 70 71 100 99 71 76 102 101
          76 77 103 102 102 103 105 104 101 102 104 100
          77 80 106 103 80 81 107 106 106 107 109 108