<?xml version="1.0"?>
<VTKFile type="UnstructuredGrid" version="0.1" byte_order="LittleEndian">
  <UnstructuredGrid>
    <Piece NumberOfCells="1000" NumberOfPoints="1331">
      <CellData Scalars="wetting pressure">
        <DataArray type="Float32" Name="wetting pressure" NumberOfComponents="1" format="ascii">
          265557 270784 272375 271437 268456 263587 256776 247784 236109 220679 265564 270807
          272419 271513 268572 263745 256952 247945 236218 220718 265574 270841 272488 271635
          268766 264035 257289 248261 236433 220791 265582 270868 272546 271742 268930 264367
          257725 248711 236726 220886 265581 270868 272553 271763 268940 264344 258022 249225
          236980 220953 265570 270833 272490 271672 268850 264295 257665 248657 236688 220873
          265550 270770 272374 271488 268601 263866 257135 248134 236348 220761 265527 270697
          272242 271281 268302 263462 256686 247725 236073 220667 265507 270636 272133 271112
          268069 263172 256377 247452 235889 220602 265496 270602 272072 271020 267944 263022
          256222 247317 235798 220570 262007 264592 265050 263599 260419 255565 248972 240500
          229946 217140 262015 264619 265105 263695 260572 255774 249199 240700 230080 217186
          262027 264660 265192 263856 260848 256198 249665 241121 230360 217280 262037 264695
          265270 264010 261090 256815 250382 241812 230812 217416 262037 264699 265290 264080
          261330 256883 250698 242713 231499 217550 262024 264659 265213 263937 261006 256712
          250351 241769 230777 217404 262002 264586 265074 263706 260683 256029 249517 240996
          230275 217250 261976 264503 264920 263451 260290 255479 248923 240472 229929 217133
          261954 264434 264793 263252 260005 255120 248547 240146 229712 217058 261942 264396
          264724 263146 259859 254944 248365 239989 229607 217022 260255 260498 259583 257392
          253905 249074 242823 235097 225901 215406 260266 260533 259655 257524 254122 249367
          243129 235358 226071 215464 260281 260588 259775 257759 254561 250011 243801 235930
          226437 215584 260294 260636 259887 257998 255011 250975 244990 236946 227057 215765
          260296 260646 259925 258131 255495 251290 245542 238302 228049 215953 260281 260597
          259827 257927 254953 250939 245010 236923 227028 215754 260254 260508 259649 257601
          254401 249857 243672 235812 226351 215553 260223 260407 259453 257259 253819 249052
          242838 235116 225909 215407 260197 260324 259297 257005 253442 248577 242349 234704
          225641 215315 260183 260278 259213 256873 253257 248354 242121 234512 225515 215272
          259139 257529 255320 252350 248517 243712 237844 230905 222985 214309 259152 257573
          255413 252523 248806 244092 238227 231222 223186 214377 259172 257643 255569 252838
          249424 244961 239084 231918 223618 214517 259189 257706 255717 253167 250104 246245
          240628 233145 224334 214725 259192 257721 255770 253338 250672 246641 241302 234673
          225404 214932 259174 257663 255652 253091 250039 246187 240876 233173 224316 214715
          259142 257555 255430 252666 249254 244805 238997 231813 223533 214485 259104 257432
          255186 252226 248469 243746 237915 230960 223009 214314 259073 257332 254995 251909
          247988 243145 237306 230462 222693 214207 259056 257277 254893 251746 247759 242869
          237029 230232 222544 214156 258275 255115 251725 247997 243814 239032 233551 227380
          220623 213465 258291 255168 251838 248206 244162 239482 233994 227737 220847 213539
          258315 255253 252026 248587 244908 240505 234972 228509 221315 213690 258336 255329
          252206 248983 245735 241976 236705 229826 222058 213907 258340 255348 252268 249172
          246315 242381 237420 231394 223065 214107 258319 255282 252133 248897 245659 241893
          237106 229885 222043 213896 258281 255154 251871 248395 244719 240333 234901 228402
          221223 213655 258237 255009 251581 247871 243779 239091 233646 227444 220649 213469
          258200 254890 251354 247492 243208 238384 232939 226877 220293 213350 258180 254824
          251232 247299 242935 238059 232616 226613 220124 213292 257484 252877 248358 243890
          239361 234604 229506 224084 218440 212694 257503 252939 248489 244131 239756 235106
          229993 224472 218680 212774 257531 253039 248707 244564 240584 236223 231039 225288
          219168 212931 257555 253126 248910 245004 241479 237771 232792 226617 219899 213145
          257560 253148 248980 245205 242064 238183 233553 228173 220788 213326 257537 253074
          248830 244909 241395 237690 233058 226639 219873 213131 257493 252927 248531 244347
          240370 236023 230912 225147 219058 212890 257442 252759 248198 243750 239321 234659
          229587 224134 218454 212694 257399 252621 247934 243313 238667 233862 228806 223511
          218065 212564 257375 252544 247792 243088 238353 233490 228442 223216 217877 212500
          256629 250488 244809 239604 234742 230016 225297 220624 216118 211863 256650 250561
          244961 239882 235192 230582 225840 221053 216381 211949 256683 250676 245211 240372
          236104 231794 226966 221925 216896 212115 256711 250777 245441 240854 237047 233387
          228745 223269 217620 212328 256717 250802 245518 241068 237643 233820 229517 224817
          218386 212490 256691 250719 245352 240749 236957 233314 228746 223230 217576 212311
          256641 250552 245016 240129 235862 231559 226758 221739 216765 212068 256582 250359
          244634 239452 234698 230070 225365 220662 216122 211859 256532 250198 244328 238947
          233949 229167 224496 219971 215693 211716 256504 250109 244162 238683 233583 228738
          224081 219637 215482 211644 255527 247566 240633 234698 229538 224858 220502 216569
          213283 210792 255552 247652 240815 235035 230087 225544 221153 217075 213587 210892
          255591 247788 241111 235614 231156 226949 222456 218078 214171 211078 255624 247905
          241378 236165 232195 228641 224352 219528 214940 211305 255630 247935 241467 236404
          232831 229122 225171 221110 215623 211458 255602 247841 241280 236051 232098 228563
          224360 219491 214895 211287 255544 247651 240896 235348 230891 226692 222227 217875
          214028 211026 255477 247428 240453 234557 229537 224972 220620 216638 213300 210791
          255419 247242 240092 233954 228635 223888 219589 215829 212804 210627 255387 247138
          239896 233639 228192 223369 219092 215435 212558 210544 253792 243529 235277 228682
          223306 218690 214632 211363 209348 209093 253822 243631 235501 229116 224058 219638
          215499 212011 209724 209213 253867 243791 235859 229848 225469 221518 217242 213314
          210450 209439 253905 243929 236177 230516 226738 223420 219470 215155 211391 209712
          253913 243966 236286 230805 227494 224019 220381 216713 212102 209881 253881 243861
          236074 230395 226638 223316 219779 215206 211367 209697 253817 243645 235630 229565
          225194 221253 217057 213130 210309 209387 253741 243390 235108 228599 223467 219026
          214931 211544 209415 209105 253675 243175 234682 227855 222294 217598 213607 210538
          208818 208911 253639 243055 234451 227471 221732 216936 212988 210060 208526 208814
          250254 237378 228041 221013 215565 211018 207105 204258 203278 205582 250287 237494
          228306 221574 216729 212522 208321 205093 203734 205724 250337 237674 228728 222514
          218855 215698 211196 206948 204661 205998 250379 237829 229097 223334 220612 217673
          214155 210270 205986 206347 250389 237872 229227 223698 221682 218600 215036 211437
          207056 206573 250355 237759 228991 223210 220513 217588 214112 210464 205994 206337
          250285 237523 228491 222225 218588 215449 211016 206793 204530 205947 250202 237242
          227897 221040 216158 211934 207736 204610 203414 205612 250132 237005 227412 220130
          214476 209839 205999 203373 202713 205388 250092 236874 227152 219678 213768 208995
          205247 202813 202381 205280
        </DataArray>
        <DataArray type="Float32" Name="nonwetting pressure" NumberOfComponents="1" format="ascii">
          265557 270784 272375 271437 268456 263587 256776 247784 236109 220679 265564 270807
          272419 271513 268572 263745 256952 247945 236218 220718 265574 270841 272488 271635
          268766 264035 257289 248261 236433 220791 265582 270868 272546 271742 268942 264367
          257725 248711 236726 220886 265581 270868 272553 271763 269344 264486 258079 249225
          236980 220953 265570 270833 272490 271672 268865 264295 257665 248657 236688 220873
          265550 270770 272374 271488 268601 263866 257135 248134 236348 220761 265527 270697
          272242 271281 268302 263462 256686 247725 236073 220667 265507 270636 272133 271112
          268069 263172 256377 247452 235889 220602 265496 270602 272072 271020 267944 263022
          256222 247317 235798 220570 262007 264592 265050 263599 260419 255565 248972 240500
          229946 217140 262015 264619 265105 263695 260572 255774 249199 240700 230080 217186
          262027 264660 265192 263856 260848 256198 249665 241121 230360 217280 262037 264695
          265270 264010 261155 256841 250382 241812 230812 217416 262037 264699 265290 264080
          262009 257219 250877 242793 231499 217550 262024 264659 265213 263937 261077 256745
          250351 241769 230777 217404 262002 264586 265074 263706 260683 256029 249517 240996
          230275 217250 261976 264503 264920 263451 260290 255479 248923 240472 229929 217133
          261954 264434 264793 263252 260005 255120 248547 240146 229712 217058 261942 264396
          264724 263146 259859 254944 248365 239989 229607 217022 260255 260498 259583 257392
          253905 249074 242823 235097 225901 215406 260266 260533 259655 257524 254122 249367
          243129 235358 226071 215464 260281 260588 259775 257759 254561 250011 243801 235930
          226437 215584 260294 260636 259887 257998 255147 251055 244990 236946 227057 215765
          260296 260646 259925 258131 256288 251732 245801 238429 228049 215953 260281 260597
          259827 257927 255095 251027 245010 236923 227028 215754 260254 260508 259649 257601
          254401 249857 243672 235812 226351 215553 260223 260407 259453 257259 253819 249052
          242838 235116 225909 215407 260197 260324 259297 257005 253442 248577 242349 234704
          225641 215315 260183 260278 259213 256873 253257 248354 242121 234512 225515 215272
          259139 257529 255320 252350 248517 243712 237844 230905 222985 214309 259152 257573
          255413 252523 248806 244092 238227 231222 223186 214377 259172 257643 255569 252838
          249424 244961 239084 231918 223618 214517 259189 257706 255717 253167 250280 246365
          240628 233145 224334 214725 259192 257721 255770 253338 251493 247114 241586 234813
          225404 214932 259174 257663 255652 253091 250222 246314 240877 233173 224316 214715
          259142 257555 255430 252666 249254 244805 238997 231813 223533 214485 259104 257432
          255186 252226 248469 243746 237915 230960 223009 214314 259073 257332 254995 251909
          247988 243145 237306 230462 222693 214207 259056 257277 254893 251746 247759 242869
          237029 230232 222544 214156 258275 255115 251725 247997 243814 239032 233551 227380
          220623 213465 258291 255168 251838 248206 244162 239482 233994 227737 220847 213539
          258315 255253 252026 248587 244908 240505 234972 228509 221315 213690 258336 255329
          252206 248983 245920 242109 236705 229826 222058 213907 258340 255348 252268 249172
          247135 242859 237706 231528 223065 214107 258319 255282 252133 248897 245851 242035
          237115 229885 222043 213896 258281 255154 251871 248395 244719 240333 234901 228402
          221223 213655 258237 255009 251581 247871 243779 239091 233646 227444 220649 213469
          258200 254890 251354 247492 243208 238384 232939 226877 220293 213350 258180 254824
          251232 247299 242935 238059 232616 226613 220124 213292 257484 252877 248358 243890
          239361 234604 229506 224084 218440 212694 257503 252939 248489 244131 239756 235106
          229993 224472 218680 212774 257531 253039 248707 244564 240584 236223 231039 225288
          219168 212931 257555 253126 248910 245004 241661 237905 232792 226617 219899 213145
          257560 253148 248980 245205 242877 238659 233831 228293 220788 213326 257537 253074
          248830 244909 241585 237833 233060 226639 219873 213131 257493 252927 248531 244347
          240370 236023 230912 225147 219058 212890 257442 252759 248198 243750 239321 234659
          229587 224134 218454 212694 257399 252621 247934 243313 238667 233862 228806 223511
          218065 212564 257375 252544 247792 243088 238353 233490 228442 223216 217877 212500
          256629 250488 244809 239604 234742 230016 225297 220624 216118 211863 256650 250561
          244961 239882 235192 230582 225840 221053 216381 211949 256683 250676 245211 240372
          236104 231794 226966 221925 216896 212115 256711 250777 245441 240854 237224 233521
          228745 223269 217620 212328 256717 250802 245518 241068 238451 234294 229786 224919
          218386 212490 256691 250719 245352 240749 237142 233455 228746 223230 217576 212311
          256641 250552 245016 240129 235862 231559 226758 221739 216765 212068 256582 250359
          244634 239452 234698 230070 225365 220662 216122 211859 256532 250198 244328 238947
          233949 229167 224496 219971 215693 211716 256504 250109 244162 238683 233583 228738
          224081 219637 215482 211644 255527 247566 240633 234698 229538 224858 220502 216569
          213283 210792 255552 247652 240815 235035 230087 225544 221153 217075 213587 210892
          255591 247788 241111 235614 231156 226949 222456 218078 214171 211078 255624 247905
          241378 236165 232371 228776 224352 219528 214940 211305 255630 247935 241467 236404
          233641 229597 225433 221188 215623 211458 255602 247841 241280 236051 232283 228706
          224360 219491 214895 211287 255544 247651 240896 235348 230891 226692 222227 217875
          214028 211026 255477 247428 240453 234557 229537 224972 220620 216638 213300 210791
          255419 247242 240092 233954 228635 223888 219589 215829 212804 210627 255387 247138
          239896 233639 228192 223369 219092 215435 212558 210544 253792 243529 235277 228682
          223306 218690 214632 211363 209348 209093 253822 243631 235501 229116 224058 219638
          215499 212011 209724 209213 253867 243791 235859 229848 225469 221518 217242 213314
          210450 209439 253905 243929 236177 230516 226933 223568 219470 215155 211391 209712
          253913 243966 236286 230805 228343 224511 220645 216780 212102 209881 253881 243861
          236074 230395 226842 223474 219788 215206 211367 209697 253817 243645 235630 229565
          225194 221253 217057 213130 210309 209387 253741 243390 235108 228599 223467 219026
          214931 211544 209415 209105 253675 243175 234682 227855 222294 217598 213607 210538
          208818 208911 253639 243055 234451 227471 221732 216936 212988 210060 208526 208814
          250254 237378 228041 221013 215565 211018 207105 204258 203278 205582 250287 237494
          228306 221574 216729 212522 208321 205093 203734 205724 250337 237674 228728 222514
          219022 215839 211196 206948 204661 205998 250379 237829 229097 223334 221192 218169
          214427 210285 205986 206347 250389 237872 229227 223698 223050 219538 215656 211718
          207056 206573 250355 237759 228991 223210 221105 218094 214391 210488 205994 206337
          250285 237523 228491 222225 218769 215607 211016 206793 204530 205947 250202 237242
          227897 221040 216158 211934 207736 204610 203414 205612 250132 237005 227412 220130
          214476 209839 205999 203373 202713 205388 250092 236874 227152 219678 213768 208995
          205247 202813 202381 205280
        </DataArray>
        <DataArray type="Float32" Name="wetting saturation" NumberOfComponents="1" format="ascii">
          1 1 1 1 1 1 1 1 1 1 1 1
          1 1 1 1 1 1 1 1 1 1 1 1
          1 1 1 1 1 1 1 1 1 1 0.998786 1
          1 1 1 1 1 1 1 1 0.959669 0.985747 0.994321 1
          1 1 1 1 1 1 0.998523 1 1 1 1 1
          1 1 1 1 1 1 1 1 1 1 1 1
          1 1 1 1 1 1 1 1 1 1 1 1
          1 1 1 1 1 1 1 1 1 1 1 1
          1 1 1 1 1 1 1 1 1 1 1 1
          1 1 1 1 1 1 1 1 1 1 1 1
          1 1 1 1 1 1 1 1 1 1 1 1
          1 1 0.993529 0.997366 1 1 1 1 1 1 1 1
          0.932072 0.966393 0.982082 0.991958 1 1 1 1 1 1 0.992846 0.996605
          1 1 1 1 1 1 1 1 1 1 1 1
          1 1 1 1 1 1 1 1 1 1 1 1
          1 1 1 1 1 1 1 1 1 1 1 1
          1 1 1 1 1 1 1 1 1 1 1 1
          1 1 1 1 1 1 1 1 1 1 1 1
          1 1 1 1 1 1 1 1 1 1 1 1
          1 1 1 1 1 1 0.986457 0.991944 1 1 1 1
          1 1 1 1 0.920635 0.955759 0.97416 0.987317 1 1 1 1
          1 1 0.985772 0.99127 1 1 1 1 1 1 1 1
          1 1 1 1 1 1 1 1 1 1 1 1
          1 1 1 1 1 1 1 1 1 1 1 1
          1 1 1 1 1 1 1 1 1 1 1 1
          1 1 1 1 1 1 1 1 1 1 1 1
          1 1 1 1 1 1 1 1 1 1 1 1
          1 1 1 1 1 1 1 1 1 1 0.98241 0.988026
          1 1 1 1 1 1 1 1 0.917857 0.952633 0.97156 0.98599
          1 1 1 1 1 1 0.981735 0.987298 0.999907 1 1 1
          1 1 1 1 1 1 1 1 1 1 1 1
          1 1 1 1 1 1 1 1 1 1 1 1
          1 1 1 1 1 1 1 1 1 1 1 1
          1 1 1 1 1 1 1 1 1 1 1 1
          1 1 1 1 1 1 1 1 1 1 1 1
          1 1 1 1 1 1 1 1 1 1 1 1
          1 1 0.981449 0.98673 1 1 1 1 1 1 1 1
          0.917906 0.952188 0.971458 0.986553 1 1 1 1 1 1 0.980746 0.985845
          0.999069 1 1 1 1 1 1 1 1 1 1 1
          1 1 1 1 1 1 1 1 1 1 1 1
          1 1 1 1 1 1 1 1 1 1 1 1
          1 1 1 1 1 1 1 1 1 1 1 1
          1 1 1 1 1 1 1 1 1 1 1 1
          1 1 1 1 1 1 1 1 1 1 1 1
          1 1 1 1 1 1 0.981753 0.98655 1 1 1 1
          1 1 1 1 0.918655 0.952364 0.972197 0.987952 1 1 1 1
          1 1 0.981018 0.985715 0.999789 1 1 1 1 1 1 1
          1 1 1 1 1 1 1 1 1 1 1 1
          1 1 1 1 1 1 1 1 1 1 1 1
          1 1 1 1 1 1 1 1 1 1 1 1
          1 1 1 1 1 1 1 1 1 1 1 1
          1 1 1 1 1 1 1 1 1 1 1 1
          1 1 1 1 1 1 1 1 1 1 0.982272 0.986596
          1 1 1 1 1 1 1 1 0.919244 0.952573 0.973051 0.989879
          1 1 1 1 1 1 0.981503 0.985878 1 1 1 1
          1 1 1 1 1 1 1 1 1 1 1 1
          1 1 1 1 1 1 1 1 1 1 1 1
          1 1 1 1 1 1 1 1 1 1 1 1
          1 1 1 1 1 1 1 1 1 1 1 1
          1 1 1 1 1 1 1 1 1 1 1 1
          1 1 1 1 1 1 1 1 1 1 1 1
          1 1 0.982352 0.98646 1 1 1 1 1 1 1 1
          0.918965 0.952571 0.973787 0.992147 1 1 1 1 1 1 0.981557 0.985736
          1 1 1 1 1 1 1 1 1 1 1 1
          1 1 1 1 1 1 1 1 1 1 1 1
          1 1 1 1 1 1 1 1 1 1 1 1
          1 1 1 1 1 1 1 1 1 1 1 1
          1 1 1 1 1 1 1 1 1 1 1 1
          1 1 1 1 1 1 1 1 1 1 1 1
          1 1 1 1 1 1 0.980453 0.985176 1 1 1 1
          1 1 1 1 0.915087 0.950789 0.97352 0.993293 1 1 1 1
          1 1 0.979645 0.984205 0.99915 1 1 1 1 1 1 1
          1 1 1 1 1 1 1 1 1 1 1 1
          1 1 1 1 1 1 1 1 1 1 1 1
          1 1 1 1 1 1 1 1 1 1 1 1
          1 1 1 1 1 1 1 1 1 1 1 1
          1 1 1 1 1 1 1 1 1 1 1 1
          0.983311 0.985838 1 1 1 1 1 1 1 1 0.94197 0.950423
          0.972814 0.998542 1 1 1 1 1 1 0.863162 0.906277 0.937991 0.971859
          1 1 1 1 1 1 0.940763 0.949333 0.972075 0.997585 1 1
          1 1 1 1 0.981938 0.984248 1 1 1 1 1 1
          1 1 1 1 1 1 1 1 1 1 1 1
          1 1 1 1 1 1 1 1 1 1 1 1
          1 1 1 1
        </DataArray>
        <DataArray type="Float32" Name="C^w from cellData" NumberOfComponents="1" format="ascii">
          199.956 199.956 199.956 199.956 199.956 199.955 199.955 199.954 199.953 199.952 199.956 199.956
          199.956 199.956 199.956 199.955 199.955 199.954 199.953 199.952 199.956 199.956 199.956 199.956
          199.953 199.955 199.955 199.954 199.953 199.952 199.956 199.956 199.956 199.942 199.328 199.671
          199.926 199.954 199.953 199.952 199.956 199.956 199.956 199.841 191.69 196.816 198.088 199.296
          199.953 199.952 199.956 199.956 199.956 199.939 199.263 199.614 199.921 199.954 199.953 199.952
          199.956 199.956 199.956 199.956 199.949 199.955 199.955 199.954 199.953 199.952 199.956 199.956
          199.956 199.956 199.956 199.955 199.955 199.954 199.953 199.952 199.956 199.956 199.956 199.956
          199.956 199.955 199.955 199.954 199.953 199.952 199.956 199.956 199.956 199.956 199.956 199.955
          199.955 199.954 199.953 199.952 199.955 199.956 199.956 199.955 199.955 199.955 199.954 199.953
          199.952 199.951 199.955 199.956 199.956 199.955 199.955 199.955 199.954 199.953 199.952 199.951
          199.955 199.956 199.956 199.955 199.843 199.95 199.954 199.953 199.952 199.951 199.955 199.956
          199.955 199.926 198.245 198.932 199.67 199.917 199.952 199.951 199.955 199.956 199.955 199.777
          186.566 192.982 195.973 197.532 199.539 199.951 199.955 199.956 199.955 199.926 198.143 198.791
          199.607 199.915 199.952 199.951 199.955 199.956 199.956 199.955 199.808 199.944 199.954 199.953
          199.952 199.951 199.955 199.956 199.956 199.955 199.955 199.955 199.954 199.953 199.952 199.951
          199.955 199.956 199.956 199.955 199.955 199.955 199.954 199.953 199.952 199.951 199.955 199.956
          199.956 199.955 199.955 199.955 199.954 199.953 199.952 199.951 199.955 199.955 199.955 199.955
          199.954 199.954 199.953 199.953 199.952 199.951 199.955 199.955 199.955 199.955 199.954 199.954
          199.953 199.953 199.952 199.951 199.955 199.955 199.955 199.955 199.635 199.865 199.953 199.953
          199.952 199.951 199.955 199.955 199.955 199.926 196.867 197.62 199.138 199.83 199.952 199.951
          199.955 199.955 199.955 199.769 184.317 191.008 194.219 196.229 199.082 199.951 199.955 199.955
          199.955 199.924 196.716 197.453 199.098 199.826 199.952 199.951 199.955 199.955 199.955 199.955
          199.596 199.842 199.953 199.953 199.952 199.951 199.955 199.955 199.955 199.955 199.954 199.954
          199.953 199.953 199.952 199.951 199.955 199.955 199.955 199.955 199.954 199.954 199.953 199.953
          199.952 199.951 199.955 199.955 199.955 199.955 199.954 199.954 199.953 199.953 199.952 199.951
          199.955 199.955 199.955 199.954 199.954 199.953 199.953 199.952 199.952 199.951 199.955 199.955
          199.955 199.954 199.954 199.953 199.953 199.952 199.952 199.951 199.955 199.955 199.955 199.954
          199.528 199.762 199.953 199.952 199.952 199.951 199.955 199.955 199.955 199.922 196.004 196.672
          198.951 199.8 199.952 199.951 199.955 199.955 199.955 199.802 183.72 190.398 193.615 195.922
          199.093 199.951 199.955 199.955 199.955 199.922 195.848 196.538 198.828 199.794 199.952 199.951
          199.955 199.955 199.955 199.954 199.492 199.723 199.953 199.952 199.952 199.951 199.955 199.955
          199.955 199.954 199.954 199.953 199.953 199.952 199.952 199.951 199.955 199.955 199.955 199.954
          199.954 199.953 199.953 199.952 199.952 199.951 199.955 199.955 199.955 199.954 199.954 199.953
          199.953 199.952 199.952 199.951 199.955 199.955 199.954 199.954 199.953 199.953 199.953 199.952
          199.951 199.951 199.955 199.955 199.954 199.954 199.953 199.953 199.953 199.952 199.951 199.951
          199.955 199.955 199.954 199.954 199.488 199.71 199.953 199.952 199.952 199.951 199.955 199.955
          199.954 199.918 195.783 196.382 198.903 199.82 199.952 199.951 199.955 199.955 199.954 199.866
          183.701 190.302 193.581 196.152 199.294 199.951 199.955 199.955 199.954 199.918 195.618 196.257
          198.713 199.815 199.952 199.951 199.955 199.955 199.954 199.954 199.451 199.664 199.953 199.952
          199.952 199.951 199.955 199.955 199.954 199.954 199.953 199.953 199.953 199.952 199.951 199.951
          199.955 199.955 199.954 199.954 199.953 199.953 199.953 199.952 199.951 199.951 199.955 199.955
          199.954 199.954 199.953 199.953 199.953 199.952 199.951 199.951 199.955 199.954 199.954 199.954
          199.953 199.953 199.952 199.952 199.951 199.951 199.955 199.954 199.954 199.954 199.953 199.953
          199.952 199.952 199.951 199.951 199.955 199.954 199.954 199.953 199.479 199.695 199.952 199.952
          199.951 199.951 199.955 199.954 199.954 199.914 195.836 196.351 198.943 199.857 199.951 199.951
          199.955 199.954 199.954 199.871 183.857 190.333 193.713 196.627 199.531 199.951 199.955 199.954
          199.954 199.914 195.662 196.202 198.801 199.853 199.951 199.951 199.955 199.954 199.954 199.953
          199.439 199.642 199.952 199.952 199.951 199.951 199.955 199.954 199.954 199.954 199.953 199.953
          199.952 199.952 199.951 199.951 199.955 199.954 199.954 199.954 199.953 199.953 199.952 199.952
          199.951 199.951 199.955 199.954 199.954 199.953 199.953 199.953 199.952 199.952 199.951 199.951
          199.955 199.954 199.954 199.953 199.953 199.952 199.952 199.951 199.951 199.951 199.955 199.954
          199.954 199.953 199.953 199.952 199.952 199.951 199.951 199.951 199.955 199.954 199.954 199.953
          199.475 199.686 199.952 199.951 199.951 199.951 199.955 199.954 199.954 199.909 195.939 196.385
          198.981 199.894 199.951 199.951 199.955 199.954 199.954 199.911 184.022 190.381 193.819 197.178
          199.726 199.951 199.955 199.954 199.954 199.909 195.756 196.2 198.941 199.891 199.951 199.951
          199.955 199.954 199.954 199.953 199.432 199.626 199.952 199.951 199.951 199.951 199.955 199.954
          199.954 199.953 199.953 199.952 199.952 199.951 199.951 199.951 199.955 199.954 199.954 199.953
          199.953 199.952 199.952 199.951 199.951 199.951 199.955 199.954 199.954 199.953 199.953 199.952
          199.952 199.951 199.951 199.951 199.955 199.954 199.953 199.953 199.952 199.952 199.951 199.951
          199.951 199.951 199.955 199.954 199.953 199.953 199.952 199.952 199.951 199.951 199.951 199.951
          199.955 199.954 199.953 199.953 199.453 199.655 199.951 199.951 199.951 199.951 199.955 199.954
          199.953 199.906 195.946 196.37 199.005 199.921 199.951 199.951 199.955 199.954 199.953 199.899
          184.055 190.4 193.95 197.733 199.85 199.951 199.955 199.954 199.953 199.906 195.754 196.183
          198.965 199.92 199.951 199.951 199.955 199.954 199.953 199.953 199.408 199.592 199.951 199.951
          199.951 199.951 199.955 199.954 199.953 199.953 199.952 199.952 199.951 199.951 199.951 199.951
          199.955 199.954 199.953 199.953 199.952 199.952 199.951 199.951 199.951 199.951 199.955 199.954
          199.953 199.953 199.952 199.952 199.951 199.951 199.951 199.951 199.955 199.954 199.953 199.952
          199.952 199.951 199.951 199.95 199.95 199.95 199.955 199.954 199.953 199.952 199.952 199.951
          199.951 199.951 199.95 199.95 199.955 199.954 199.953 199.952 199.379 199.547 199.951 199.951
          199.95 199.95 199.955 199.954 199.953 199.907 195.517 196.069 198.967 199.928 199.951 199.95
          199.955 199.954 199.953 199.911 183.359 190.078 193.818 198.017 199.892 199.95 199.955 199.954
          199.953 199.907 195.32 195.912 198.766 199.926 199.951 199.95 199.955 199.954 199.953 199.952
          199.337 199.485 199.951 199.951 199.95 199.95 199.955 199.954 199.953 199.952 199.952 199.951
          199.951 199.951 199.95 199.95 199.955 199.954 199.953 199.952 199.951 199.951 199.951 199.95
          199.95 199.95 199.955 199.954 199.953 199.952 199.951 199.951 199.951 199.95 199.95 199.95
          199.955 199.953 199.952 199.951 199.951 199.95 199.95 199.95 199.95 199.95 199.955 199.953
          199.952 199.951 199.576 199.753 199.95 199.95 199.95 199.95 199.954 199.953 199.952 199.928
          196.031 196.304 198.932 199.95 199.95 199.95 199.954 199.953 199.952 199.913 188.118 189.743
          193.176 198.319 199.95 199.95 199.954 199.953 199.952 199.883 172.921 181.4 187.384 192.953
          199.003 199.95 199.954 199.953 199.952 199.914 187.889 189.539 193.008 198.197 199.95 199.95
          199.954 199.953 199.952 199.928 195.707 195.855 198.808 199.95 199.95 199.95 199.955 199.953
          199.952 199.951 199.468 199.671 199.95 199.95 199.95 199.95 199.955 199.953 199.952 199.951
          199.951 199.95 199.95 199.95 199.95 199.95 199.955 199.953 199.952 199.951 199.951 199.95
          199.95 199.95 199.95 199.95
        </DataArray>
        <DataArray type="Float32" Name="C^n from cellData" NumberOfComponents="1" format="ascii">
          0 0 0 3.44956e-15 6.29294e-11 4.48801e-12 1.39909e-13 2.65788e-15 9.06229e-18 0 0 0
          5.44756e-16 8.52336e-12 1.09778e-07 9.49426e-09 3.7133e-10 7.71611e-12 1.11599e-13 1.53781e-15 7.62392e-18 1.06565e-14 9.90347e-13 7.76562e-09
          8.70138e-05 7.77207e-06 4.63247e-07 1.09783e-08 1.59654e-10 2.11679e-12 2.91654e-13 1.44195e-11 1.07048e-09 3.66997e-06 0.0165952 0.00351663
          0.000410018 1.16787e-05 1.60051e-07 1.9622e-09 6.40099e-10 2.59141e-08 1.48112e-06 0.00143878 0.0417691 0.0245487 0.0186344 0.0077944
          0.000131529 1.66022e-06 4.98886e-13 2.60793e-11 1.95517e-09 4.82616e-06 0.0167577 0.00429181 0.000477526 1.31455e-05 1.7998e-07 2.20349e-09
          2.27989e-16 2.29284e-14 2.24113e-12 1.21604e-08 0.000146879 1.0951e-05 6.26688e-07 1.42958e-08 2.04714e-10 2.68254e-12 0 2.62517e-18
          1.6963e-15 1.78152e-11 2.02137e-07 1.63718e-08 6.24052e-10 1.25355e-11 1.78245e-13 1.94775e-15 0 0 0 1.30729e-14
          1.7978e-10 1.26621e-11 3.83163e-13 6.80337e-15 1.89246e-17 0 0 0 0 0 6.44914e-14 3.7493e-15
          6.05239e-17 0 0 0 0 0 0 1.034e-14 6.44824e-10 3.42569e-11 1.0845e-12 1.6326e-14
          4.47222e-17 0 0 0 5.71941e-16 2.3023e-11 1.5459e-06 8.51983e-08 3.66331e-09 6.94405e-11 7.01802e-13 5.24215e-15