<?xml version="1.0"?>
<VTKFile type="UnstructuredGrid" version="0.1" byte_order="LittleEndian">
  <UnstructuredGrid>
    <Piece NumberOfCells="100" NumberOfPoints="202">
      <PointData Scalars="pressure_w">
        <DataArray type="Float32" Name="pressure_w" NumberOfComponents="1" format="ascii">
          200000 199999 200000 199999 199995 199995 199991 199991 199984 199984 199977 199977
          199967 199967 199957 199957 199945 199945 199931 199931 199915 199915 199897 199897
          199876 199876 199851 199851 199823 199823 199789 199789 199748 199748 199696 199696
          199627 199627 199529 199529 199375 199375 199094 199094 198424 198424 195900 195900
          193049 193049 193035 193035 193027 193027 193019 193019 193011 193011 193003 193003
          192995 192995 192987 192987 192979 192979 192971 192971 192962 192962 192954 192954
          192946 192946 192938 192938 192930 192930 192922 192922 192914 192914 192906 192906
          192898 192898 192890 192890 192882 192882 192874 192874 192865 192865 192857 192857
          192849 192849 192841 192841 192833 192833 192825 192825 192817 192817 192809 192809
          192801 192801 192793 192793 192785 192785 192776 192776 192768 192768 192760 192760
          192752 192752 192744 192744 192736 192736 192728 192728 192720 192720 192712 192712
          192704 192704 192696 192696 192687 192687 192679 192679 192671 192671 192663 192663
          192655 192655 192647 192647 192639 192639 192631 192631 192623 192623 192615 192615
          192607 192607 192598 192598 192590 192590 192582 192582 192574 192574 192566 192566
          192558 192558 192550 192550 192542 192542 192534 192534 192526 192526 192518 192518
          192509 192509 192501 192501 192493 192493 192485 192485 192477 192477 192469 192469
          192461 192461 192453 192453 192445 192445 192437 192437 192429 192429
        </DataArray>
        <DataArray type="Float32" Name="pressure_n" NumberOfComponents="1" format="ascii">
          200506 200568 200506 200568 200594 200594 200610 200610 200621 200621 200628 200628
          200633 200633 200636 200636 200638 200638 200638 200638 200637 200637 200635 200635
          200632 200632 200628 200628 200623 200623 200618 200618 200611 200611 200604 200604
          200596 200596 200588 200588 200579 200579 200570 200570 200561 200561 200552 200552
          200543 200543 200535 200535 200527 200527 200519 200519 200511 200511 200503 200503
          200495 200495 200487 200487 200479 200479 200471 200471 200462 200462 200454 200454
          200446 200446 200438 200438 200430 200430 200422 200422 200414 200414 200406 200406
          200398 200398 200390 200390 200382 200382 200374 200374 200365 200365 200357 200357
          200349 200349 200341 200341 200333 200333 200325 200325 200317 200317 200309 200309
          200301 200301 200293 200293 200285 200285 200276 200276 200268 200268 200260 200260
          200252 200252 200244 200244 200236 200236 200228 200228 200220 200220 200212 200212
          200204 200204 200196 200196 200187 200187 200179 200179 200171 200171 200163 200163
          200155 200155 200147 200147 200139 200139 200131 200131 200123 200123 200115 200115
          200107 200107 200098 200098 200090 200090 200082 200082 200074 200074 200066 200066
          200058 200058 200050 200050 200042 200042 200034 200034 200026 200026 200018 200018
          200009 200009 200001 200001 199993 199993 199985 199985 199977 199977 199969 199969
          199961 199961 199953 199953 199945 199945 199937 199937 199929 199929
        </DataArray>
        <DataArray type="Float32" Name="density_w" NumberOfComponents="1" format="ascii">
          1000 1000 1000 1000 1000 1000 1000 1000 1000 1000 1000 1000
          1000 1000 1000 1000 1000 1000 1000 1000 1000 1000 1000 1000
          1000 1000 1000 1000 1000 1000 1000 1000 1000 1000 1000 1000
          1000 1000 1000 1000 1000 1000 1000 1000 1000 1000 1000 1000
          1000 1000 1000 1000 1000 1000 1000 1000 1000 1000 1000 1000
          1000 1000 1000 1000 1000 1000 1000 1000 1000 1000 1000 1000
          1000 1000 1000 1000 1000 1000 1000 1000 1000 1000 1000 1000
          1000 1000 1000 1000 1000 1000 1000 1000 1000 1000 1000 1000
          1000 1000 1000 1000 1000 1000 1000 1000 1000 1000 1000 1000
          1000 1000 1000 1000 1000 1000 1000 1000 1000 1000 1000 1000
          1000 1000 1000 1000 1000 1000 1000 1000 1000 1000 1000 1000
          1000 1000 1000 1000 1000 1000 1000 1000 1000 1000 1000 1000
          1000 1000 1000 1000 1000 1000 1000 1000 1000 1000 1000 1000
          1000 1000 1000 1000 1000 1000 1000 1000 1000 1000 1000 1000
          1000 1000 1000 1000 1000 1000 1000 1000 1000 1000 1000 1000
          1000 1000 1000 1000 1000 1000 1000 1000 1000 1000 1000 1000
          1000 1000 1000 1000 1000 1000 1000 1000 1000 1000
        </DataArray>
        <DataArray type="Float32" Name="density_n" NumberOfComponents="1" format="ascii">
          890 890 890 890 890 890 890 890 890 890 890 890
          890 890 890 890 890 890 890 890 890 890 890 890
          890 890 890 890 890 890 890 890 890 890 890 890
          890 890 890 890 890 890 890 890 890 890 890 890
          890 890 890 890 890 890 890 890 890 890 890 890
          890 890 890 890 890 890 890 890 890 890 890 890
          890 890 890 890 890 890 890 890 890 890 890 890
          890 890 890 890 890 890 890 890 890 890 890 890
          890 890 890 890 890 890 890 890 890 890 890 890
          890 890 890 890 890 890 890 890 890 890 890 890
          890 890 890 890 890 890 890 890 890 890 890 890
          890 890 890 890 890 890 890 890 890 890 890 890
          890 890 890 890 890 890 890 890 890 890 890 890
          890 890 890 890 890 890 890 890 890 890 890 890
          890 890 890 890 890 890 890 890 890 890 890 890
          890 890 890 890 890 890 890 890 890 890 890 890
          890 890 890 890 890 890 890 890 890 890
        </DataArray>
        <DataArray type="Float32" Name="saturation_w" NumberOfComponents="1" format="ascii">
          0.977653 0.770819 0.977653 0.770819 0.696848 0.696848 0.650969 0.650969 0.616665 0.616665 0.588427 0.588427
          0.563729 0.563729 0.541172 0.541172 0.519867 0.519867 0.499174 0.499174 0.478715 0.478715 0.458055 0.458055
          0.436756 0.436756 0.414374 0.414374 0.390429 0.390429 0.364366 0.364366 0.335518 0.335518 0.303054 0.303054
          0.265928 0.265928 0.222864 0.222864 0.172548 0.172548 0.114774 0.114774 0.0547845 0.0547845 0.0115527 0.0115527
          2.35677e-05 2.35677e-05 2.00476e-18 2.00476e-18 0 0 0 0 0 0 0 0
          0 0 0 0 0 0 0 0 0 0 0 0
          0 0 0 0 0 0 0 0 0 0 0 0
          0 0 0 0 0 0 0 0 0 0 0 0
          0 0 0 0 0 0 0 0 0 0 0 0
          0 0 0 0 0 0 0 0 0 0 0 0
          0 0 0 0 0 0 0 0 0 0 0 0
          0 0 0 0 0 0 0 0 0 0 0 0
          0 0 0 0 0 0 0 0 0 0 0 0
          0 0 0 0 0 0 0 0 0 0 0 0
          0 0 0 0 0 0 0 0 0 0 0 0
          0 0 0 0 0 0 0 0 0 0 0 0
          0 0 0 0 0 0 0 0 0 0
        </DataArray>
        <DataArray type="Float32" Name="saturation_n" NumberOfComponents="1" format="ascii">
          0.0223472 0.229181 0.0223472 0.229181 0.303152 0.303152 0.349031 0.349031 0.383335 0.383335 0.411573 0.411573
          0.436271 0.436271 0.458828 0.458828 0.480133 0.480133 0.500826 0.500826 0.521285 0.521285 0.541945 0.541945
          0.563244 0.563244 0.585626 0.585626 0.609571 0.609571 0.635634 0.635634 0.664482 0.664482 0.696946 0.696946
          0.734072 0.734072 0.777136 0.777136 0.827452 0.827452 0.885226 0.885226 0.945216 0.945216 0.988447 0.988447
          0.999976 0.999976 1 1 1 1 1 1 1 1 1 1
          1 1 1 1 1 1 1 1 1 1 1 1
          1 1 1 1 1 1 1 1 1 1 1 1
          1 1 1 1 1 1 1 1 1 1 1 1
          1 1 1 1 1 1 1 1 1 1 1 1
          1 1 1 1 1 1 1 1 1 1 1 1
          1 1 1 1 1 1 1 1 1 1 1 1
          1 1 1 1 1 1 1 1 1 1 1 1
          1 1 1 1 1 1 1 1 1 1 1 1
          1 1 1 1 1 1 1 1 1 1 1 1
          1 1 1 1 1 1 1 1 1 1 1 1
          1 1 1 1 1 1 1 1 1 1 1 1
          1 1 1 1 1 1 1 1 1 1
        </DataArray>
        <DataArray type="Float32" Name="relativePerm_w" NumberOfComponents="1" format="ascii">
          0.913563 0.353029 0.913563 0.353029 0.235805 0.235805 0.179573 0.179573 0.14461 0.14461 0.119886 0.119886
          0.100991 0.100991 0.0857714 0.0857714 0.0730412 0.0730412 0.062088 0.062088 0.0525179 0.0525179 0.0440222 0.0440222
          0.0363877 0.0363877 0.0294829 0.0294829 0.0232364 0.0232364 0.017626 0.017626 0.0126725 0.0126725 0.00843488 0.00843488
          0.00500103 0.00500103 0.00246696 0.00246696 0.00088643 0.00088643 0.000173527 0.000173527 9.00803e-06 9.00803e-06 1.78127e-08 1.78127e-08
          3.0851e-19 3.0851e-19 0 0 0 0 0 0 0 0 0 0
          0 0 0 0 0 0 0 0 0 0 0 0
          0 0 0 0 0 0 0 0 0 0 0 0
          0 0 0 0 0 0 0 0 0 0 0 0
          0 0 0 0 0 0 0 0 0 0 0 0
          0 0 0 0 0 0 0 0 0 0 0 0
          0 0 0 0 0 0 0 0 0 0 0 0
          0 0 0 0 0 0 0 0 0 0 0 0
          0 0 0 0 0 0 0 0 0 0 0 0
          0 0 0 0 0 0 0 0 0 0 0 0
          0 0 0 0 0 0 0 0 0 0 0 0
          0 0 0 0 0 0 0 0 0 0 0 0
          0 0 0 0 0 0 0 0 0 0
        </DataArray>
        <DataArray type="Float32" Name="relativePerm_n" NumberOfComponents="1" format="ascii">
          2.20707e-05 0.0213162 2.20707e-05 0.0213162 0.047274 0.047274 0.070199 0.070199 0.0910656 0.0910656 0.110741 0.110741
          0.129847 0.129847 0.148867 0.148867 0.168225 0.168225 0.188327 0.188327 0.209465 0.209465 0.232081 0.232081
          0.256728 0.256728 0.28407 0.28407 0.314936 0.314936 0.35039 0.35039 0.391831 0.391831 0.441123 0.441123
          0.500754 0.500754 0.573943 0.573943 0.664291 0.664291 0.773303 0.773303 0.890751 0.890751 0.976898 0.976898
          0.999953 0.999953 1 1 1 1 1 1 1 1 1 1
          1 1 1 1 1 1 1 1 1 1 1 1
          1 1 1 1 1 1 1 1 1 1 1 1
          1 1 1 1 1 1 1 1 1 1 1 1
          1 1 1 1 1 1 1 1 1 1 1 1
          1 1 1 1 1 1 1 1 1 1 1 1
          1 1 1 1 1 1 1 1 1 1 1 1
          1 1 1 1 1 1 1 1 1 1 1 1
          1 1 1 1 1 1 1 1 1 1 1 1
          1 1 1 1 1 1 1 1 1 1 1 1
          1 1 1 1 1 1 1 1 1 1 1 1
          1 1 1 1 1 1 1 1 1 1 1 1
          1 1 1 1 1 1 1 1 1 1
        </DataArray>
        <DataArray type="Float32" Name="porosity" NumberOfComponents="1" format="ascii">
          0.2 0.2 0.2 0.2 0.2 0.2 0.2 0.2 0.2 0.2 0.2 0.2
          0.2 0.2 0.2 0.2 0.2 0.2 0.2 0.2 0.2 0.2 0.2 0.2
          0.2 0.2 0.2 0.2 0.2 0.2 0.2 0.2 0.2 0.2 0.2 0.2
          0.2 0.2 0.2 0.2 0.2 0.2 0.2 0.2 0.2 0.2 0.2 0.2
          0.2 0.2 0.2 0.2 0.2 0.2 0.2 0.2 0.2 0.2 0.2 0.2
          0.2 0.2 0.2 0.2 0.2 0.2 0.2 0.2 0.2 0.2 0.2 0.2
          0.2 0.2 0.2 0.2 0.2 0.2 0.2 0.2 0.2 0.2 0.2 0.2
          0.2 0.2 0.2 0.2 0.2 0.2 0.2 0.2 0.2 0.2 0.2 0.2
          0.2 0.2 0.2 0.2 0.2 0.2 0.2 0.2 0.2 0.2 0.2 0.2
          0.2 0.2 0.2 0.2 0.2 0.2 0.2 0.2 0.2 0.2 0.2 0.2
          0.2 0.2 0.2 0.2 0.2 0.2 0.2 0.2 0.2 0.2 0.2 0.2
          0.2 0.2 0.2 0.2 0.2 0.2 0.2 0.2 0.2 0.2 0.2 0.2
          0.2 0.2 0.2 0.2 0.2 0.2 0.2 0.2 0.2 0.2 0.2 0.2
          0.2 0.2 0.2 0.2 0.2 0.2 0.2 0.2 0.2 0.2 0.2 0.2
          0.2 0.2 0.2 0.2 0.2 0.2 0.2 0.2 0.2 0.2 0.2 0.2
          0.2 0.2 0.2 0.2 0.2 0.2 0.2 0.2 0.2 0.2 0.2 0.2
          0.2 0.2 0.2 0.2 0.2 0.2 0.2 0.2 0.2 0.2
        </DataArray>
        <DataArray type="Float32" Name="temperature" NumberOfComponents="1" format="ascii">
          283.15 283.15 283.15 283.15 283.15 283.15 283.15 283.15 283.15 283.15 283.15 283.15
          283.15 283.15 283.15 283.15 283.15 283.15 283.15 283.15 283.15 283.15 283.15 283.15
          283.15 283.15 283.15 283.15 283.15 283.15 283.15 283.15 283.15 283.15 283.15 283.15
          283.15 283.15 283.15 283.15 283.15 283.15 283.15 283.15 283.15 283.15 283.15 283.15
          283.15 283.15 283.15 283.15 283.15 283.15 283.15 283.15 283.15 283.15 283.15 283.15
          283.15 283.15 283.15 283.15 283.15 283.15 283.15 283.15 283.15 283.15 283.15 283.15
          283.15 283.15 283.15 283.15 283.15 283.15 283.15 283.15 283.15 283.15 283.15 283.15
          283.15 283.15 283.15 283.15 283.15 283.15 283.15 283.15 283.15 283.15 283.15 283.15
          283.15 283.15 283.15 283.15 283.15 283.15 283.15 283.15 283.15 283.15 283.15 283.15
          283.15 283.15 283.15 283.15 283.15 283.15 283.15 283.15 283.15 283.15 283.15 283.15
          283.15 283.15 283.15 283.15 283.15 283.15 283.15 283.15 283.15 283.15 283.15 283.15
          283.15 283.15 283.15 283.15 283.15 283.15 283.15 283.15 283.15 283.15 283.15 283.15
          283.15 283.15 283.15 283.15 283.15 283.15 283.15 283.15 283.15 283.15 283.15 283.15
          283.15 283.15 283.15 283.15 283.15 283.15 283.15 283.15 283.15 283.15 283.15 283.15
          283.15 283.15 283.15 283.15 283.15 283.15 283.15 283.15 283.15 283.15 283.15 283.15
          283.15 283.15 283.15 283.15 283.15 283.15 283.15 283.15 283.15 283.15 283.15 283.15
          283.15 283.15 283.15 283.15 283.15 283.15 283.15 283.15 283.15 283.15
        </DataArray>
      </PointData>
      <Points>
        <DataArray type="Float32" Name="Coordinates" NumberOfComponents="3" format="ascii">
          0 0 0 3 0 0 0 60 0 3 60 0
          6 0 0 6 60 0 9 0 0 9 60 0
          12 0 0 12 60 0 15 0 0 15 60 0
          18 0 0 18 60 0 21 0 0 21 60 0
          24 0 0 24 60 0 27 0 0 27 60 0
          30 0 0 30 60 0 33 0 0 33 60 0
          36 0 0 36 60 0 39 0 0 39 60 0
          42 0 0 42 60 0 45 0 0 45 60 0
          48 0 0 48 60 0 51 0 0 51 60 0
          54 0 0 54 60 0 57 0 0 57 60 0
          60 0 0 60 60 0 63 0 0 63 60 0
          66 0 0 66 60 0 69 0 0 69 60 0
          72 0 0 72 60 0 75 0 0 75 60 0
          78 0 0 78 60 0 81 0 0 81 60 0
          84 0 0 84 60 0 87 0 0 87 60 0
          90 0 0 90 60 0 93 0 0 93 60 0
          96 0 0 96 60 0 99 0 0 99 60 0
          102 0 0 102 60 0 105 0 0 105 60 0
          108 0 0 108 60 0 111 0 0 111 60 0
          114 0 0 114 60 0 117 0 0 117 60 0
          120 0 0 120 60 0 123 0 0 123 60 0
          126 0 0 126 60 0 129 0 0 129 60 0
          132 0 0 132 60 0 135 0 0 135 60 0
          138 0 0 138 60 0 141 0 0 141 60 0
          144 0 0 144 60 0 147 0 0 147 60 0
          150 0 0 150 60 0 153 0 0 153 60 0
          156 0 0 156 60 0 159 0 0 159 60 0
          162 0 0 162 60 0 165 0 0 165 60 0
          168 0 0 168 60 0 171 0 0 171 60 0
          174 0 0 174 60 0 177 0 0 177 60 0
          180 0 0 180 60 0 183 0 0 183 60 0
          186 0 0 186 60 0 189 0 0 189 60 0
          192 0 0 192 60 0 195 0 0 195 60 0
          198 0 0 198 60 0 201 0 0 201 60 0
          204 0 0 204 60 0 207 0 0 207 60 0
          210 0 0 210 60 0 213 0 0 213 60 0
          216 0 0 216 60 0 219 0 0 219 60 0
          222 0 0 222 60 0 225 0 0 225 60 0
          228 0 0 228 60 0 231 0 0 231 60 0
          234 0 0 234 60 0 237 0 0 237 60 0
          240 0 0 240 60 0 243 0 0 243 60 0
          246 0 0 246 60 0 249 0 0 249 60 0
          252 0 0 252 60 0 255 0 0 255 60 0
          258 0 0 258 60 0 261 0 0 261 60 0
          264 0 0 264 60 0 267 0 0 267 60 0
          270 0 0 270 60 0 273 0 0 273 60 0
          276 0 0 276 60 0 279 0 0 279 60 0
          282 0 0 282 60 0 285 0 0 285 60 0
          288 0 0 288 60 0 291 0 0 291 60 0
          294 0 0 294 60 0 297 0 0 297 60 0
          300 0 0 300 60 0
        </DataArray>
      </Points>
      <Cells>
        <DataArray type="Int32" Name="connectivity" NumberOfComponents="1" format="ascii">
          0 1 3 2 1 4 5 3 4 6 7 5
          6 8 9 7 8 10 11 9 10 12 13 11
          12 14 15 13 14 16 17 15 16 18 19 17
          18 20 21 19 20 22 23 21 22 24 25 23
          24 26 27 25 26 28 29 27 28 30 31 29
          30 32 33 31 32 34 35 33 34 36 37 35
          36 38 39 37 38 40 41 39 40 42 43 41
          42 44 45 43 44 46 47 45 46 48 49 47
          48 50 51 49 50 52 53 51 52 54 55 53
          54 56 57 55 56 58 59 57 58 60 61 59
          60 62 63 61 62 64 65 63 64 66 67 65
          66 68 69 67 68 70 71 69 70 72 73 71
          72 74 75 73 74 76 77 75 76 78 79 77
          78 80 81 79 80 82 83 81 82 84 85 83
          84 86 87 85 86 88 89 87 88 90 91 89
          90 92 93 91 92 94 95 93 94 96 97 95
          96 98 99 97 98 100 101 99 100 102 103 101
          102 104 105 103 104 106 107 105 106 108 109 107
          108 110 111 109 110 112 113 111 112 114 115 113
          114 116 117 115 116 118 119 117 118 120 121 119
          120 122 123 121 122 124 125 123 124 126 127 125
          126 128 129 127 128 130 131 129 130 132 133 131
          132 134 135 133 134 136 137 135 136 138 139 137
          138 140 141 139 140 142 143 141 142 144 145 143
          144 146 147 145 146 148 149 147 148 150 151 149
          150 152 153 151 152 154 155 153 154 156 157 155
          156 158 159 157 158 160 161 159 160 162 163 161
          162 164 165 163 164 166 167 165 166 168 169 167
          168 170 171 169 170 172 173 171 172 174 175 173
          174 176 177 175 176 178 179 177 178 180 181 179
          180 182 183 181 182 184 185 183 184 186 187 185
          186 188 189 187 188 190 191 189 190 192 193 191
          192 194 195 193 194 196 197 195 196 198 199 197
          198 200 201 199
        </DataArray>
        <DataArray type="Int32" Name="offsets" NumberOfComponents="1" format="ascii">
          4 8 12 16 20 24 28 32 36 40 44 48
          52 56 60 64 68 72 76 80 84 88 92 96
          100 104 108 112 116 120 124 128 132 136 140 144
          148 152 156 160 164 168 172 176 180 184 188 192
          196 200 204 208 212 216 220 224 228 232 236 240
          244 248 252 256 260 264 268 272 276 280 284 288
          292 296 300 304 308 312 316 320 324 328 332 336
          340 344 348 352 356 360 364 368 372 376 380 384
          388 392 396 400
        </DataArray>
        <DataArray type="UInt8" Name="types" NumberOfComponents="1" format="ascii">
          9 9 9 9 9 9 9 9 9 9 9 9
          9 9 9 9 9 9 9 9 9 9 9 9
          9 9 9 9 9 9 9 9 9 9 9 9
          9 9 9 9 9 9 9 9 9 9 9 9
          9 9 9 9 9 9 9 9 9 9 9 9
          9 9 9 9 9 9 9 9 9 9 9 9
          9 9 9 9 9 9 9 9 9 9 9 9
          9 9 9 9 9 9 9 9 9 9 9 9
          9 9 9 9
        </DataArray>
      </Cells>
    </Piece>
  </UnstructuredGrid>
</VTKFile>
