<?xml version="1.0"?>
<VTKFile type="UnstructuredGrid" version="0.1" byte_order="LittleEndian">
  <UnstructuredGrid>
    <Piece NumberOfCells="100" NumberOfPoints="202">
      <PointData Scalars="pressure_w">
        <DataArray type="Float32" Name="pressure_w" NumberOfComponents="1" format="ascii">
          200000 199998 200000 199998 199994 199994 199989 199989 199981 199981 199972 199972
          199961 199961 199949 199949 199935 199935 199918 199918 199899 199899 199878 199878
          199853 199853 199823 199823 199787 199787 199743 199743 199687 199687 199610 199610
          199497 199497 199309 199309 198920 198920 197752 197752 193364 193364 193019 193019
          193011 193011 193003 193003 192995 192995 192987 192987 192979 192979 192971 192971
          192963 192963 192955 192955 192947 192947 192939 192939 192930 192930 192922 192922
          192914 192914 192906 192906 192898 192898 192890 192890 192882 192882 192874 192874
          192866 192866 192858 192858 192850 192850 192841 192841 192833 192833 192825 192825
          192817 192817 192809 192809 192801 192801 192793 192793 192785 192785 192777 192777
          192769 192769 192761 192761 192752 192752 192744 192744 192736 192736 192728 192728
          192720 192720 192712 192712 192704 192704 192696 192696 192688 192688 192680 192680
          192672 192672 192663 192663 192655 192655 192647 192647 192639 192639 192631 192631
          192623 192623 192615 192615 192607 192607 192599 192599 192591 192591 192583 192583
          192574 192574 192566 192566 192558 192558 192550 192550 192542 192542 192534 192534
          192526 192526 192518 192518 192510 192510 192502 192502 192494 192494 192486 192486
          192477 192477 192469 192469 192461 192461 192453 192453 192445 192445 192437 192437
          192429 192429 192421 192421 192413 192413 192405 192405 192397 192397
        </DataArray>
        <DataArray type="Float32" Name="pressure_n" NumberOfComponents="1" format="ascii">
          200505 200564 200505 200564 200588 200588 200602 200602 200611 200611 200617 200617
          200621 200621 200622 200622 200622 200622 200621 200621 200618 200618 200614 200614
          200609 200609 200604 200604 200597 200597 200590 200590 200582 200582 200573 200573
          200564 200564 200555 200555 200545 200545 200536 200536 200528 200528 200519 200519
          200511 200511 200503 200503 200495 200495 200487 200487 200479 200479 200471 200471
          200463 200463 200455 200455 200447 200447 200439 200439 200430 200430 200422 200422
          200414 200414 200406 200406 200398 200398 200390 200390 200382 200382 200374 200374
          200366 200366 200358 200358 200350 200350 200341 200341 200333 200333 200325 200325
          200317 200317 200309 200309 200301 200301 200293 200293 200285 200285 200277 200277
          200269 200269 200261 200261 200252 200252 200244 200244 200236 200236 200228 200228
          200220 200220 200212 200212 200204 200204 200196 200196 200188 200188 200180 200180
          200172 200172 200163 200163 200155 200155 200147 200147 200139 200139 200131 200131
          200123 200123 200115 200115 200107 200107 200099 200099 200091 200091 200083 200083
          200074 200074 200066 200066 200058 200058 200050 200050 200042 200042 200034 200034
          200026 200026 200018 200018 200010 200010 200002 200002 199994 199994 199986 199986
          199977 199977 199969 199969 199961 199961 199953 199953 199945 199945 199937 199937
          199929 199929 199921 199921 199913 199913 199905 199905 199897 199897
        </DataArray>
        <DataArray type="Float32" Name="density_w" NumberOfComponents="1" format="ascii">
          999.749 999.749 999.749 999.749 999.749 999.749 999.749 999.749 999.749 999.749 999.749 999.749
          999.749 999.749 999.749 999.749 999.749 999.749 999.749 999.749 999.749 999.749 999.749 999.749
          999.749 999.749 999.749 999.749 999.749 999.749 999.749 999.749 999.749 999.749 999.749 999.749
          999.749 999.749 999.749 999.749 999.748 999.748 999.748 999.748 999.746 999.746 999.746 999.746
          999.746 999.746 999.746 999.746 999.746 999.746 999.746 999.746 999.746 999.746 999.746 999.746
          999.746 999.746 999.746 999.746 999.746 999.746 999.746 999.746 999.746 999.746 999.746 999.746
          999.746 999.746 999.746 999.746 999.746 999.746 999.746 999.746 999.746 999.746 999.745 999.745
          999.745 999.745 999.745 999.745 999.745 999.745 999.745 999.745 999.745 999.745 999.745 999.745
          999.745 999.745 999.745 999.745 999.745 999.745 999.745 999.745 999.745 999.745 999.745 999.745
          999.745 999.745 999.745 999.745 999.745 999.745 999.745 999.745 999.745 999.745 999.745 999.745
          999.745 999.745 999.745 999.745 999.745 999.745 999.745 999.745 999.745 999.745 999.745 999.745
          999.745 999.745 999.745 999.745 999.745 999.745 999.745 999.745 999.745 999.745 999.745 999.745
          999.745 999.745 999.745 999.745 999.745 999.745 999.745 999.745 999.745 999.745 999.745 999.745
          999.745 999.745 999.745 999.745 999.745 999.745 999.745 999.745 999.745 999.745 999.745 999.745
          999.745 999.745 999.745 999.745 999.745 999.745 999.745 999.745 999.745 999.745 999.745 999.745
          999.745 999.745 999.745 999.745 999.745 999.745 999.745 999.745 999.745 999.745 999.745 999.745
          999.745 999.745 999.745 999.745 999.745 999.745 999.745 999.745 999.745 999.745
        </DataArray>
        <DataArray type="Float32" Name="density_n" NumberOfComponents="1" format="ascii">
          890 890 890 890 890 890 890 890 890 890 890 890
          890 890 890 890 890 890 890 890 890 890 890 890
          890 890 890 890 890 890 890 890 890 890 890 890
          890 890 890 890 890 890 890 890 890 890 890 890
          890 890 890 890 890 890 890 890 890 890 890 890
          890 890 890 890 890 890 890 890 890 890 890 890
          890 890 890 890 890 890 890 890 890 890 890 890
          890 890 890 890 890 890 890 890 890 890 890 890
          890 890 890 890 890 890 890 890 890 890 890 890
          890 890 890 890 890 890 890 890 890 890 890 890
          890 890 890 890 890 890 890 890 890 890 890 890
          890 890 890 890 890 890 890 890 890 890 890 890
          890 890 890 890 890 890 890 890 890 890 890 890
          890 890 890 890 890 890 890 890 890 890 890 890
          890 890 890 890 890 890 890 890 890 890 890 890
          890 890 890 890 890 890 890 890 890 890 890 890
          890 890 890 890 890 890 890 890 890 890
        </DataArray>
        <DataArray type="Float32" Name="saturation_w" NumberOfComponents="1" format="ascii">
          0.97893 0.780233 0.97893 0.780233 0.708325 0.708325 0.663205 0.663205 0.629036 0.629036 0.600507 0.600507
          0.575159 0.575159 0.5516 0.5516 0.528916 0.528916 0.506666 0.506666 0.484224 0.484224 0.461034 0.461034
          0.436546 0.436546 0.410165 0.410165 0.381205 0.381205 0.34884 0.34884 0.312036 0.312036 0.269493 0.269493
          0.21964 0.21964 0.161033 0.161033 0.0946069 0.0946069 0.032249 0.032249 0.00134486 0.00134486 2.66161e-10 2.66161e-10
          0 0 0 0 0 0 0 0 0 0 0 0
          0 0 0 0 0 0 0 0 0 0 0 0
          0 0 0 0 0 0 0 0 0 0 0 0
          0 0 0 0 0 0 0 0 0 0 0 0
          0 0 0 0 0 0 0 0 0 0 0 0
          0 0 0 0 0 0 0 0 0 0 0 0
          0 0 0 0 0 0 0 0 0 0 0 0
          0 0 0 0 0 0 0 0 0 0 0 0
          0 0 0 0 0 0 0 0 0 0 0 0
          0 0 0 0 0 0 0 0 0 0 0 0
          0 0 0 0 0 0 0 0 0 0 0 0
          0 0 0 0 0 0 0 0 0 0 0 0
          0 0 0 0 0 0 0 0 0 0
        </DataArray>
        <DataArray type="Float32" Name="saturation_n" NumberOfComponents="1" format="ascii">
          0.0210697 0.219767 0.0210697 0.219767 0.291675 0.291675 0.336795 0.336795 0.370963 0.370963 0.399493 0.399493
          0.424841 0.424841 0.4484 0.4484 0.471084 0.471084 0.493334 0.493334 0.515776 0.515776 0.538966 0.538966
          0.563454 0.563454 0.589835 0.589835 0.618795 0.618795 0.65116 0.65116 0.687964 0.687964 0.730507 0.730507
          0.78036 0.78036 0.838967 0.838967 0.905393 0.905393 0.967751 0.967751 0.998655 0.998655 1 1
          1 1 1 1 1 1 1 1 1 1 1 1
          1 1 1 1 1 1 1 1 1 1 1 1
          1 1 1 1 1 1 1 1 1 1 1 1
          1 1 1 1 1 1 1 1 1 1 1 1
          1 1 1 1 1 1 1 1 1 1 1 1
          1 1 1 1 1 1 1 1 1 1 1 1
          1 1 1 1 1 1 1 1 1 1 1 1
          1 1 1 1 1 1 1 1 1 1 1 1
          1 1 1 1 1 1 1 1 1 1 1 1
          1 1 1 1 1 1 1 1 1 1 1 1
          1 1 1 1 1 1 1 1 1 1 1 1
          1 1 1 1 1 1 1 1 1 1 1 1
          1 1 1 1 1 1 1 1 1 1
        </DataArray>
        <DataArray type="Float32" Name="relativePerm_w" NumberOfComponents="1" format="ascii">
          0.918347 0.370594 0.918347 0.370594 0.251727 0.251727 0.19346 0.19346 0.156568 0.156568 0.130039 0.130039
          0.109433 0.109433 0.0925756 0.0925756 0.0782614 0.0782614 0.0659001 0.0659001 0.0549774 0.0549774 0.0451785 0.0451785
          0.0363178 0.0363178 0.028303 0.028303 0.0211172 0.0211172 0.0148083 0.0148083 0.00948024 0.00948024 0.00527457 0.00527457
          0.00232725 0.00232725 0.000672454 0.000672454 8.01108e-05 8.01108e-05 1.08159e-06 1.08159e-06 3.27123e-12 3.27123e-12 0 0
          0 0 0 0 0 0 0 0 0 0 0 0
          0 0 0 0 0 0 0 0 0 0 0 0
          0 0 0 0 0 0 0 0 0 0 0 0
          0 0 0 0 0 0 0 0 0 0 0 0
          0 0 0 0 0 0 0 0 0 0 0 0
          0 0 0 0 0 0 0 0 0 0 0 0
          0 0 0 0 0 0 0 0 0 0 0 0
          0 0 0 0 0 0 0 0 0 0 0 0
          0 0 0 0 0 0 0 0 0 0 0 0
          0 0 0 0 0 0 0 0 0 0 0 0
          0 0 0 0 0 0 0 0 0 0 0 0
          0 0 0 0 0 0 0 0 0 0 0 0
          0 0 0 0 0 0 0 0 0 0
        </DataArray>
        <DataArray type="Float32" Name="relativePerm_n" NumberOfComponents="1" format="ascii">
          1.851e-05 0.0188957 1.851e-05 0.0188957 0.0423907 0.0423907 0.0635393 0.0635393 0.0831619 0.0831619 0.102043 0.102043
          0.120783 0.120783 0.139887 0.139887 0.159837 0.159837 0.180901 0.180901 0.20365 0.20365 0.228741 0.228741
          0.256978 0.256978 0.289376 0.289376 0.327264 0.327264 0.372412 0.372412 0.427211 0.427211 0.494885 0.494885
          0.579585 0.579585 0.685613 0.685613 0.8124 0.8124 0.935568 0.935568 0.99731 0.99731 1 1
          1 1 1 1 1 1 1 1 1 1 1 1
          1 1 1 1 1 1 1 1 1 1 1 1
          1 1 1 1 1 1 1 1 1 1 1 1
          1 1 1 1 1 1 1 1 1 1 1 1
          1 1 1 1 1 1 1 1 1 1 1 1
          1 1 1 1 1 1 1 1 1 1 1 1
          1 1 1 1 1 1 1 1 1 1 1 1
          1 1 1 1 1 1 1 1 1 1 1 1
          1 1 1 1 1 1 1 1 1 1 1 1
          1 1 1 1 1 1 1 1 1 1 1 1
          1 1 1 1 1 1 1 1 1 1 1 1
          1 1 1 1 1 1 1 1 1 1 1 1
          1 1 1 1 1 1 1 1 1 1
        </DataArray>
        <DataArray type="Float32" Name="porosity" NumberOfComponents="1" format="ascii">
          0.2 0.2 0.2 0.2 0.2 0.2 0.2 0.2 0.2 0.2 0.2 0.2
          0.2 0.2 0.2 0.2 0.2 0.2 0.2 0.2 0.2 0.2 0.2 0.2
          0.2 0.2 0.2 0.2 0.2 0.2 0.2 0.2 0.2 0.2 0.2 0.2
          0.2 0.2 0.2 0.2 0.2 0.2 0.2 0.2 0.2 0.2 0.2 0.2
          0.2 0.2 0.2 0.2 0.2 0.2 0.2 0.2 0.2 0.2 0.2 0.2
          0.2 0.2 0.2 0.2 0.2 0.2 0.2 0.2 0.2 0.2 0.2 0.2
          0.2 0.2 0.2 0.2 0.2 0.2 0.2 0.2 0.2 0.2 0.2 0.2
          0.2 0.2 0.2 0.2 0.2 0.2 0.2 0.2 0.2 0.2 0.2 0.2
          0.2 0.2 0.2 0.2 0.2 0.2 0.2 0.2 0.2 0.2 0.2 0.2
          0.2 0.2 0.2 0.2 0.2 0.2 0.2 0.2 0.2 0.2 0.2 0.2
          0.2 0.2 0.2 0.2 0.2 0.2 0.2 0.2 0.2 0.2 0.2 0.2
          0.2 0.2 0.2 0.2 0.2 0.2 0.2 0.2 0.2 0.2 0.2 0.2
          0.2 0.2 0.2 0.2 0.2 0.2 0.2 0.2 0.2 0.2 0.2 0.2
          0.2 0.2 0.2 0.2 0.2 0.2 0.2 0.2 0.2 0.2 0.2 0.2
          0.2 0.2 0.2 0.2 0.2 0.2 0.2 0.2 0.2 0.2 0.2 0.2
          0.2 0.2 0.2 0.2 0.2 0.2 0.2 0.2 0.2 0.2 0.2 0.2
          0.2 0.2 0.2 0.2 0.2 0.2 0.2 0.2 0.2 0.2
        </DataArray>
        <DataArray type="Float32" Name="temperature" NumberOfComponents="1" format="ascii">
          283.15 283.15 283.15 283.15 283.15 283.15 283.15 283.15 283.15 283.15 283.15 283.15
          283.15 283.15 283.15 283.15 283.15 283.15 283.15 283.15 283.15 283.15 283.15 283.15
          283.15 283.15 283.15 283.15 283.15 283.15 283.15 283.15 283.15 283.15 283.15 283.15
          283.15 283.15 283.15 283.15 283.15 283.15 283.15 283.15 283.15 283.15 283.15 283.15
          283.15 283.15 283.15 283.15 283.15 283.15 283.15 283.15 283.15 283.15 283.15 283.15
          283.15 283.15 283.15 283.15 283.15 283.15 283.15 283.15 283.15 283.15 283.15 283.15
          283.15 283.15 283.15 283.15 283.15 283.15 283.15 283.15 283.15 283.15 283.15 283.15
          283.15 283.15 283.15 283.15 283.15 283.15 283.15 283.15 283.15 283.15 283.15 283.15
          283.15 283.15 283.15 283.15 283.15 283.15 283.15 283.15 283.15 283.15 283.15 283.15
          283.15 283.15 283.15 283.15 283.15 283.15 283.15 283.15 283.15 283.15 283.15 283.15
          283.15 283.15 283.15 283.15 283.15 283.15 283.15 283.15 283.15 283.15 283.15 283.15
          283.15 283.15 283.15 283.15 283.15 283.15 283.15 283.15 283.15 283.15 283.15 283.15
          283.15 283.15 283.15 283.15 283.15 283.15 283.15 283.15 283.15 283.15 283.15 283.15
          283.15 283.15 283.15 283.15 283.15 283.15 283.15 283.15 283.15 283.15 283.15 283.15
          283.15 283.15 283.15 283.15 283.15 283.15 283.15 283.15 283.15 283.15 283.15 283.15
          283.15 283.15 283.15 283.15 283.15 283.15 283.15 283.15 283.15 283.15 283.15 283.15
          283.15 283.15 283.15 283.15 283.15 283.15 283.15 283.15 283.15 283.15
        </DataArray>
      </PointData>
      <Points>
        <DataArray type="Float32" Name="Coordinates" NumberOfComponents="3" format="ascii">
          0 0 0 3 0 0 0 60 0 3 60 0
          6 0 0 6 60 0 9 0 0 9 60 0
          12 0 0 12 60 0 15 0 0 15 60 0
          18 0 0 18 60 0 21 0 0 21 60 0
          24 0 0 24 60 0 27 0 0 27 60 0
          30 0 0 30 60 0 33 0 0 33 60 0
          36 0 0 36 60 0 39 0 0 39 60 0
          42 0 0 42 60 0 45 0 0 45 60 0
          48 0 0 48 60 0 51 0 0 51 60 0
          54 0 0 54 60 0 57 0 0 57 60 0
          60 0 0 60 60 0 63 0 0 63 60 0
          66 0 0 66 60 0 69 0 0 69 60 0
          72 0 0 72 60 0 75 0 0 75 60 0
          78 0 0 78 60 0 81 0 0 81 60 0
          84 0 0 84 60 0 87 0 0 87 60 0
          90 0 0 90 60 0 93 0 0 93 60 0
          96 0 0 96 60 0 99 0 0 99 60 0
          102 0 0 102 60 0 105 0 0 105 60 0
          108 0 0 108 60 0 111 0 0 111 60 0
          114 0 0 114 60 0 117 0 0 117 60 0
          120 0 0 120 60 0 123 0 0 123 60 0
          126 0 0 126 60 0 129 0 0 129 60 0
          132 0 0 132 60 0 135 0 0 135 60 0
          138 0 0 138 60 0 141 0 0 141 60 0
          144 0 0 144 60 0 147 0 0 147 60 0
          150 0 0 150 60 0 153 0 0 153 60 0
          156 0 0 156 60 0 159 0 0 159 60 0
          162 0 0 162 60 0 165 0 0 165 60 0
          168 0 0 168 60 0 171 0 0 171 60 0
          174 0 0 174 60 0 177 0 0 177 60 0
          180 0 0 180 60 0 183 0 0 183 60 0
          186 0 0 186 60 0 189 0 0 189 60 0
          192 0 0 192 60 0 195 0 0 195 60 0
          198 0 0 198 60 0 201 0 0 201 60 0
          204 0 0 204 60 0 207 0 0 207 60 0
          210 0 0 210 60 0 213 0 0 213 60 0
          216 0 0 216 60 0 219 0 0 219 60 0
          222 0 0 222 60 0 225 0 0 225 60 0
          228 0 0 228 60 0 231 0 0 231 60 0
          234 0 0 234 60 0 237 0 0 237 60 0
          240 0 0 240 60 0 243 0 0 243 60 0
          246 0 0 246 60 0 249 0 0 249 60 0
          252 0 0 252 60 0 255 0 0 255 60 0
          258 0 0 258 60 0 261 0 0 261 60 0
          264 0 0 264 60 0 267 0 0 267 60 0
          270 0 0 270 60 0 273 0 0 273 60 0
          276 0 0 276 60 0 279 0 0 279 60 0
          282 0 0 282 60 0 285 0 0 285 60 0
          288 0 0 288 60 0 291 0 0 291 60 0
          294 0 0 294 60 0 297 0 0 297 60 0
          300 0 0 300 60 0
        </DataArray>
      </Points>
      <Cells>
        <DataArray type="Int32" Name="connectivity" NumberOfComponents="1" format="ascii">
          0 1 3 2 1 4 5 3 4 6 7 5
          6 8 9 7 8 10 11 9 10 12 13 11
          12 14 15 13 14 16 17 15 16 18 19 17
          18 20 21 19 20 22 23 21 22 24 25 23
          24 26 27 25 26 28 29 27 28 30 31 29
          30 32 33 31 32 34 35 33 34 36 37 35
          36 38 39 37 38 40 41 39 40 42 43 41
          42 44 45 43 44 46 47 45 46 48 49 47
          48 50 51 49 50 52 53 51 52 54 55 53
          54 56 57 55 56 58 59 57 58 60 61 59
          60 62 63 61 62 64 65 63 64 66 67 65
          66 68 69 67 68 70 71 69 70 72 73 71
          72 74 75 73 74 76 77 75 76 78 79 77
          78 80 81 79 80 82 83 81 82 84 85 83
          84 86 87 85 86 88 89 87 88 90 91 89
          90 92 93 91 92 94 95 93 94 96 97 95
          96 98 99 97 98 100 101 99 100 102 103 101
          102 104 105 103 104 106 107 105 106 108 109 107
          108 110 111 109 110 112 113 111 112 114 115 113
          114 116 117 115 116 118 119 117 118 120 121 119
          120 122 123 121 122 124 125 123 124 126 127 125
          126 128 129 127 128 130 131 129 130 132 133 131
          132 134 135 133 134 136 137 135 136 138 139 137
          138 140 141 139 140 142 143 141 142 144 145 143
          144 146 147 145 146 148 149 147 148 150 151 149
          150 152 153 151 152 154 155 153 154 156 157 155
          156 158 159 157 158 160 161 159 160 162 163 161
          162 164 165 163 164 166 167 165 166 168 169 167
          168 170 171 169 170 172 173 171 172 174 175 173
          174 176 177 175 176 178 179 177 178 180 181 179
          180 182 183 181 182 184 185 183 184 186 187 185
          186 188 189 187 188 190 191 189 190 192 193 191
          192 194 195 193 194 196 197 195 196 198 199 197
          198 200 201 199
        </DataArray>
        <DataArray type="Int32" Name="offsets" NumberOfComponents="1" format="ascii">
          4 8 12 16 20 24 28 32 36 40 44 48
          52 56 60 64 68 72 76 80 84 88 92 96
          100 104 108 112 116 120 124 128 132 136 140 144
          148 152 156 160 164 168 172 176 180 184 188 192
          196 200 204 208 212 216 220 224 228 232 236 240
          244 248 252 256 260 264 268 272 276 280 284 288
          292 296 300 304 308 312 316 320 324 328 332 336
          340 344 348 352 356 360 364 368 372 376 380 384
          388 392 396 400
        </DataArray>
        <DataArray type="UInt8" Name="types" NumberOfComponents="1" format="ascii">
          9 9 9 9 9 9 9 9 9 9 9 9
          9 9 9 9 9 9 9 9 9 9 9 9
          9 9 9 9 9 9 9 9 9 9 9 9
          9 9 9 9 9 9 9 9 9 9 9 9
          9 9 9 9 9 9 9 9 9 9 9 9
          9 9 9 9 9 9 9 9 9 9 9 9
          9 9 9 9 9 9 9 9 9 9 9 9
          9 9 9 9 9 9 9 9 9 9 9 9
          9 9 9 9
        </DataArray>
      </Cells>
    </Piece>
  </UnstructuredGrid>
</VTKFile>
