<?xml version="1.0"?>
<VTKFile type="UnstructuredGrid" version="0.1" byte_order="LittleEndian">
  <UnstructuredGrid>
    <Piece NumberOfCells="100" NumberOfPoints="202">
      <CellData Scalars="wetting pressure" Vectors="wetting-velocity">
        <DataArray type="Float32" Name="wetting pressure" NumberOfComponents="1" format="ascii">
          199999 199996 199991 199985 199977 199968 199957 199944 199929 199913 199894 199872
          199847 199818 199782 199739 199684 199609 199499 199313 198908 197401 193022 192989
          192981 192973 192965 192957 192949 192941 192933 192925 192917 192908 192900 192892
          192884 192876 192868 192860 192852 192844 192836 192828 192819 192811 192803 192795
          192787 192779 192771 192763 192755 192747 192739 192730 192722 192714 192706 192698
          192690 192682 192674 192666 192658 192650 192641 192633 192625 192617 192609 192601
          192593 192585 192577 192569 192561 192552 192544 192536 192528 192520 192512 192504
          192496 192488 192480 192472 192464 192455 192447 192439 192431 192423 192415 192407
          192399 192391 192383 192374
        </DataArray>
        <DataArray type="Float32" Name="nonwetting pressure" NumberOfComponents="1" format="ascii">
          200565 200598 200614 200625 200632 200637 200641 200642 200642 200639 200636 200632
          200627 200621 200614 200606 200596 200585 200570 200548 200506 200379 200497 200489
          200481 200473 200465 200457 200449 200441 200433 200425 200417 200408 200400 200392
          200384 200376 200368 200360 200352 200344 200336 200328 200319 200311 200303 200295
          200287 200279 200271 200263 200255 200247 200239 200230 200222 200214 200206 200198
          200190 200182 200174 200166 200158 200150 200141 200133 200125 200117 200109 200101
          200093 200085 200077 200069 200061 200052 200044 200036 200028 200020 200012 200004
          199996 199988 199980 199972 199964 199955 199947 199939 199931 199923 199915 199907
          199899 199891 199883 199874
        </DataArray>
        <DataArray type="Float32" Name="capillary pressure" NumberOfComponents="1" format="ascii">
          565.155 601.471 623.046 640.221 655.459 669.844 684.032 698.533 712.209 726.734 742.517 760.067
          780.056 803.426 831.564 866.648 912.353 975.5 1070.52 1234.53 1598.26 2978.65 7475.11 7500
          7500 7500 7500 7500 7500 7500 7500 7500 7500 7500 7500 7500
          7500 7500 7500 7500 7500 7500 7500 7500 7500 7500 7500 7500
          7500 7500 7500 7500 7500 7500 7500 7500 7500 7500 7500 7500
          7500 7500 7500 7500 7500 7500 7500 7500 7500 7500 7500 7500
          7500 7500 7500 7500 7500 7500 7500 7500 7500 7500 7500 7500
          7500 7500 7500 7500 7500 7500 7500 7500 7500 7500 7500 7500
          7500 7500 7500 7500
        </DataArray>
        <DataArray type="Float32" Name="wetting saturation" NumberOfComponents="1" format="ascii">
          0.782863 0.691248 0.644246 0.610178 0.582171 0.557471 0.534622 0.5127 0.493241 0.473771 0.453902 0.433252
          0.411414 0.387931 0.362251 0.333682 0.301309 0.263867 0.219545 0.165771 0.0999938 0.0300274 0.000137234 5.54422e-17
          0 0 0 0 0 0 0 0 0 0 0 0
          0 0 0 0 0 0 0 0 0 0 0 0
          0 0 0 0 0 0 0 0 0 0 0 0
          0 0 0 0 0 0 0 0 0 0 0 0
          0 0 0 0 0 0 0 0 0 0 0 0
          0 0 0 0 0 0 0 0 0 0 0 0
          0 0 0 0
        </DataArray>
        <DataArray type="Float32" Name="nonwetting saturation" NumberOfComponents="1" format="ascii">
          0.217137 0.308752 0.355754 0.389822 0.417828 0.442529 0.465378 0.4873 0.506759 0.526229 0.546098 0.566748
          0.588586 0.612069 0.637749 0.666318 0.698691 0.736133 0.780455 0.834229 0.900006 0.969973 0.999863 1
          1 1 1 1 1 1 1 1 1 1 1 1
          1 1 1 1 1 1 1 1 1 1 1 1
          1 1 1 1 1 1 1 1 1 1 1 1
          1 1 1 1 1 1 1 1 1 1 1 1
          1 1 1 1 1 1 1 1 1 1 1 1
          1 1 1 1 1 1 1 1 1 1 1 1
          1 1 1 1
        </DataArray>
        <DataArray type="Float32" Name="wetting-velocity" NumberOfComponents="3" format="ascii">
          3.84069e-05 0 0 3.79889e-05 0 0 3.74731e-05 0 0 3.68942e-05 0 0
          3.62594e-05 0 0 3.55686e-05 0 0 3.48178e-05 0 0 3.39994e-05 0 0
          3.31091e-05 0 0 3.21409e-05 0 0 3.10816e-05 0 0 2.99145e-05 0 0
          2.86181e-05 0 0 2.7165e-05 0 0 2.55192e-05 0 0 2.36329e-05 0 0
          2.14414e-05 0 0 1.88542e-05 0 0 1.57404e-05 0 0 1.19138e-05 0 0
          7.20179e-06 0 0 2.35021e-06 0 0 4.60007e-08 0 0 5.39805e-20 0 0
          0 0 0 0 0 0 0 0 0 0 0 0
          0 0 0 0 0 0 0 0 0 0 0 0
          0 0 0 0 0 0 0 0 0 0 0 0
          0 0 0 0 0 0 0 0 0 0 0 0
          0 0 0 0 0 0 0 0 0 0 0 0
          0 0 0 0 0 0 0 0 0 0 0 0
          0 0 0 0 0 0 0 0 0 0 0 0
          0 0 0 0 0 0 0 0 0 0 0 0
          0 0 0 0 0 0 0 0 0 0 0 0
          0 0 0 0 0 0 0 0 0 0 0 0
          0 0 0 0 0 0 0 0 0 0 0 0
          0 0 0 0 0 0 0 0 0 0 0 0
          0 0 0 0 0 0 0 0 0 0 0 0
          0 0 0 0 0 0 0 0 0 0 0 0
          0 0 0 0 0 0 0 0 0 0 0 0
          0 0 0 0 0 0 0 0 0 0 0 0
          0 0 0 0 0 0 0 0 0 0 0 0
          0 0 0 0 0 0 0 0 0 0 0 0
          0 0 0 0 0 0 0 0 0 0 0 0
        </DataArray>
        <DataArray type="Float32" Name="non-wetting-velocity" NumberOfComponents="3" format="ascii">
          -4.69907e-06 0 0 -4.28104e-06 0 0 -3.76521e-06 0 0 -3.18629e-06 0 0
          -2.55152e-06 0 0 -1.86078e-06 0 0 -1.10992e-06 0 0 -2.91584e-07 0 0
          5.98758e-07 0 0 1.56699e-06 0 0 2.62629e-06 0 0 3.7934e-06 0 0
          5.08974e-06 0 0 6.54285e-06 0 0 8.18869e-06 0 0 1.0075e-05 0 0
          1.22664e-05 0 0 1.48537e-05 0 0 1.79675e-05 0 0 2.1794e-05 0 0
          2.65061e-05 0 0 3.13577e-05 0 0 3.36619e-05 0 0 3.37079e-05 0 0
          3.37079e-05 0 0 3.37079e-05 0 0 3.37079e-05 0 0 3.37079e-05 0 0
          3.37079e-05 0 0 3.37079e-05 0 0 3.37079e-05 0 0 3.37079e-05 0 0
          3.37079e-05 0 0 3.37079e-05 0 0 3.37079e-05 0 0 3.37079e-05 0 0
          3.37079e-05 0 0 3.37079e-05 0 0 3.37079e-05 0 0 3.37079e-05 0 0
          3.37079e-05 0 0 3.37079e-05 0 0 3.37079e-05 0 0 3.37079e-05 0 0
          3.37079e-05 0 0 3.37079e-05 0 0 3.37079e-05 0 0 3.37079e-05 0 0
          3.37079e-05 0 0 3.37079e-05 0 0 3.37079e-05 0 0 3.37079e-05 0 0
          3.37079e-05 0 0 3.37079e-05 0 0 3.37079e-05 0 0 3.37079e-05 0 0
          3.37079e-05 0 0 3.37079e-05 0 0 3.37079e-05 0 0 3.37079e-05 0 0
          3.37079e-05 0 0 3.37079e-05 0 0 3.37079e-05 0 0 3.37079e-05 0 0
          3.37079e-05 0 0 3.37079e-05 0 0 3.37079e-05 0 0 3.37079e-05 0 0
          3.37079e-05 0 0 3.37079e-05 0 0 3.37079e-05 0 0 3.37079e-05 0 0
          3.37079e-05 0 0 3.37079e-05 0 0 3.37079e-05 0 0 3.37079e-05 0 0
          3.37079e-05 0 0 3.37079e-05 0 0 3.37079e-05 0 0 3.37079e-05 0 0
          3.37079e-05 0 0 3.37079e-05 0 0 3.37079e-05 0 0 3.37079e-05 0 0
          3.37079e-05 0 0 3.37079e-05 0 0 3.37079e-05 0 0 3.37079e-05 0 0
          3.37079e-05 0 0 3.37079e-05 0 0 3.37079e-05 0 0 3.37079e-05 0 0
          3.37079e-05 0 0 3.37079e-05 0 0 3.37079e-05 0 0 3.37079e-05 0 0
          3.37079e-05 0 0 3.37079e-05 0 0 3.37079e-05 0 0 3.37079e-05 0 0
        </DataArray>
      </CellData>
      <Points>
        <DataArray type="Float32" Name="Coordinates" NumberOfComponents="3" format="ascii">
          0 0 0 3 0 0 0 60 0 3 60 0
          6 0 0 6 60 0 9 0 0 9 60 0
          12 0 0 12 60 0 15 0 0 15 60 0
          18 0 0 18 60 0 21 0 0 21 60 0
          24 0 0 24 60 0 27 0 0 27 60 0
          30 0 0 30 60 0 33 0 0 33 60 0
          36 0 0 36 60 0 39 0 0 39 60 0
          42 0 0 42 60 0 45 0 0 45 60 0
          48 0 0 48 60 0 51 0 0 51 60 0
          54 0 0 54 60 0 57 0 0 57 60 0
          60 0 0 60 60 0 63 0 0 63 60 0
          66 0 0 66 60 0 69 0 0 69 60 0
          72 0 0 72 60 0 75 0 0 75 60 0
          78 0 0 78 60 0 81 0 0 81 60 0
          84 0 0 84 60 0 87 0 0 87 60 0
          90 0 0 90 60 0 93 0 0 93 60 0
          96 0 0 96 60 0 99 0 0 99 60 0
          102 0 0 102 60 0 105 0 0 105 60 0
          108 0 0 108 60 0 111 0 0 111 60 0
          114 0 0 114 60 0 117 0 0 117 60 0
          120 0 0 120 60 0 123 0 0 123 60 0
          126 0 0 126 60 0 129 0 0 129 60 0
          132 0 0 132 60 0 135 0 0 135 60 0
          138 0 0 138 60 0 141 0 0 141 60 0
          144 0 0 144 60 0 147 0 0 147 60 0
          150 0 0 150 60 0 153 0 0 153 60 0
          156 0 0 156 60 0 159 0 0 159 60 0
          162 0 0 162 60 0 165 0 0 165 60 0
          168 0 0 168 60 0 171 0 0 171 60 0
          174 0 0 174 60 0 177 0 0 177 60 0
          180 0 0 180 60 0 183 0 0 183 60 0
          186 0 0 186 60 0 189 0 0 189 60 0
          192 0 0 192 60 0 195 0 0 195 60 0
          198 0 0 198 60 0 201 0 0 201 60 0
          204 0 0 204 60 0 207 0 0 207 60 0
          210 0 0 210 60 0 213 0 0 213 60 0
          216 0 0 216 60 0 219 0 0 219 60 0
          222 0 0 222 60 0 225 0 0 225 60 0
          228 0 0 228 60 0 231 0 0 231 60 0
          234 0 0 234 60 0 237 0 0 237 60 0
          240 0 0 240 60 0 243 0 0 243 60 0
          246 0 0 246 60 0 249 0 0 249 60 0
          252 0 0 252 60 0 255 0 0 255 60 0
          258 0 0 258 60 0 261 0 0 261 60 0
          264 0 0 264 60 0 267 0 0 267 60 0
          270 0 0 270 60 0 273 0 0 273 60 0
          276 0 0 276 60 0 279 0 0 279 60 0
          282 0 0 282 60 0 285 0 0 285 60 0
          288 0 0 288 60 0 291 0 0 291 60 0
          294 0 0 294 60 0 297 0 0 297 60 0
          300 0 0 300 60 0
        </DataArray>
      </Points>
      <Cells>
        <DataArray type="Int32" Name="connectivity" NumberOfComponents="1" format="ascii">
          0 1 3 2 1 4 5 3 4 6 7 5
          6 8 9 7 8 10 11 9 10 12 13 11
          12 14 15 13 14 16 17 15 16 18 19 17
          18 20 21 19 20 22 23 21 22 24 25 23
          24 26 27 25 26 28 29 27 28 30 31 29
          30 32 33 31 32 34 35 33 34 36 37 35
          36 38 39 37 38 40 41 39 40 42 43 41
          42 44 45 43 44 46 47 45 46 48 49 47
          48 50 51 49 50 52 53 51 52 54 55 53
          54 56 57 55 56 58 59 57 58 60 61 59
          60 62 63 61 62 64 65 63 64 66 67 65
          66 68 69 67 68 70 71 69 70 72 73 71
          72 74 75 73 74 76 77 75 76 78 79 77
          78 80 81 79 80 82 83 81 82 84 85 83
          84 86 87 85 86 88 89 87 88 90 91 89
          90 92 93 91 92 94 95 93 94 96 97 95
          96 98 99 97 98 100 101 99 100 102 103 101
          102 104 105 103 104 106 107 105 106 108 109 107
          108 110 111 109 110 112 113 111 112 114 115 113
          114 116 117 115 116 118 119 117 118 120 121 119
          120 122 123 121 122 124 125 123 124 126 127 125
          126 128 129 127 128 130 131 129 130 132 133 131
          132 134 135 133 134 136 137 135 136 138 139 137
          138 140 141 139 140 142 143 141 142 144 145 143
          144 146 147 145 146 148 149 147 148 150 151 149
          150 152 153 151 152 154 155 153 154 156 157 155
          156 158 159 157 158 160 161 159 160 162 163 161
          162 164 165 163 164 166 167 165 166 168 169 167
          168 170 171 169 170 172 173 171 172 174 175 173
          174 176 177 175 176 178 179 177 178 180 181 179
          180 182 183 181 182 184 185 183 184 186 187 185
          186 188 189 187 188 190 191 189 190 192 193 191
          192 194 195 193 194 196 197 195 196 198 199 197
          198 200 201 199
        </DataArray>
        <DataArray type="Int32" Name="offsets" NumberOfComponents="1" format="ascii">
          4 8 12 16 20 24 28 32 36 40 44 48
          52 56 60 64 68 72 76 80 84 88 92 96
          100 104 108 112 116 120 124 128 132 136 140 144
          148 152 156 160 164 168 172 176 180 184 188 192
          196 200 204 208 212 216 220 224 228 232 236 240
          244 248 252 256 260 264 268 272 276 280 284 288
          292 296 300 304 308 312 316 320 324 328 332 336
          340 344 348 352 356 360 364 368 372 376 380 384
          388 392 396 400
        </DataArray>
        <DataArray type="UInt8" Name="types" NumberOfComponents="1" format="ascii">
          9 9 9 9 9 9 9 9 9 9 9 9
          9 9 9 9 9 9 9 9 9 9 9 9
          9 9 9 9 9 9 9 9 9 9 9 9
          9 9 9 9 9 9 9 9 9 9 9 9
          9 9 9 9 9 9 9 9 9 9 9 9
          9 9 9 9 9 9 9 9 9 9 9 9
          9 9 9 9 9 9 9 9 9 9 9 9
          9 9 9 9 9 9 9 9 9 9 9 9
          9 9 9 9
        </DataArray>
      </Cells>
    </Piece>
  </UnstructuredGrid>
</VTKFile>
