<?xml version="1.0"?>
<VTKFile type="UnstructuredGrid" version="0.1" byte_order="LittleEndian">
  <UnstructuredGrid>
    <Piece NumberOfCells="100" NumberOfPoints="202">
      <PointData Scalars="pressure_w">
        <DataArray type="Float32" Name="pressure_w" NumberOfComponents="1" format="ascii">
          200000 199999 200000 199999 199995 199995 199990 199990 199984 199984 199976 199976
          199967 199967 199957 199957 199944 199944 199930 199930 199914 199914 199896 199896
          199875 199875 199851 199851 199822 199822 199788 199788 199746 199746 199694 199694
          199625 199625 199528 199528 199379 199379 199112 199112 198500 198500 196332 196332
          193057 193057 193034 193034 193026 193026 193018 193018 193010 193010 193002 193002
          192994 192994 192986 192986 192978 192978 192970 192970 192962 192962 192954 192954
          192945 192945 192937 192937 192929 192929 192921 192921 192913 192913 192905 192905
          192897 192897 192889 192889 192881 192881 192873 192873 192865 192865 192856 192856
          192848 192848 192840 192840 192832 192832 192824 192824 192816 192816 192808 192808
          192800 192800 192792 192792 192784 192784 192776 192776 192768 192768 192759 192759
          192751 192751 192743 192743 192735 192735 192727 192727 192719 192719 192711 192711
          192703 192703 192695 192695 192687 192687 192678 192678 192670 192670 192662 192662
          192654 192654 192646 192646 192638 192638 192630 192630 192622 192622 192614 192614
          192606 192606 192598 192598 192590 192590 192581 192581 192573 192573 192565 192565
          192557 192557 192549 192549 192541 192541 192533 192533 192525 192525 192517 192517
          192509 192509 192501 192501 192492 192492 192484 192484 192476 192476 192468 192468
          192460 192460 192452 192452 192444 192444 192436 192436 192428 192428
        </DataArray>
        <DataArray type="Float32" Name="pressure_n" NumberOfComponents="1" format="ascii">
          200506 200568 200506 200568 200595 200595 200610 200610 200621 200621 200629 200629
          200634 200634 200637 200637 200638 200638 200639 200639 200638 200638 200636 200636
          200632 200632 200628 200628 200623 200623 200618 200618 200611 200611 200604 200604
          200596 200596 200587 200587 200578 200578 200569 200569 200560 200560 200551 200551
          200543 200543 200534 200534 200526 200526 200518 200518 200510 200510 200502 200502
          200494 200494 200486 200486 200478 200478 200470 200470 200462 200462 200454 200454
          200445 200445 200437 200437 200429 200429 200421 200421 200413 200413 200405 200405
          200397 200397 200389 200389 200381 200381 200373 200373 200365 200365 200356 200356
          200348 200348 200340 200340 200332 200332 200324 200324 200316 200316 200308 200308
          200300 200300 200292 200292 200284 200284 200276 200276 200268 200268 200259 200259
          200251 200251 200243 200243 200235 200235 200227 200227 200219 200219 200211 200211
          200203 200203 200195 200195 200187 200187 200178 200178 200170 200170 200162 200162
          200154 200154 200146 200146 200138 200138 200130 200130 200122 200122 200114 200114
          200106 200106 200098 200098 200090 200090 200081 200081 200073 200073 200065 200065
          200057 200057 200049 200049 200041 200041 200033 200033 200025 200025 200017 200017
          200009 200009 200001 200001 199992 199992 199984 199984 199976 199976 199968 199968
          199960 199960 199952 199952 199944 199944 199936 199936 199928 199928
        </DataArray>
        <DataArray type="Float32" Name="density_w" NumberOfComponents="1" format="ascii">
          1000 1000 1000 1000 1000 1000 1000 1000 1000 1000 1000 1000
          1000 1000 1000 1000 1000 1000 1000 1000 1000 1000 1000 1000
          1000 1000 1000 1000 1000 1000 1000 1000 1000 1000 1000 1000
          1000 1000 1000 1000 1000 1000 1000 1000 1000 1000 1000 1000
          1000 1000 1000 1000 1000 1000 1000 1000 1000 1000 1000 1000
          1000 1000 1000 1000 1000 1000 1000 1000 1000 1000 1000 1000
          1000 1000 1000 1000 1000 1000 1000 1000 1000 1000 1000 1000
          1000 1000 1000 1000 1000 1000 1000 1000 1000 1000 1000 1000
          1000 1000 1000 1000 1000 1000 1000 1000 1000 1000 1000 1000
          1000 1000 1000 1000 1000 1000 1000 1000 1000 1000 1000 1000
          1000 1000 1000 1000 1000 1000 1000 1000 1000 1000 1000 1000
          1000 1000 1000 1000 1000 1000 1000 1000 1000 1000 1000 1000
          1000 1000 1000 1000 1000 1000 1000 1000 1000 1000 1000 1000
          1000 1000 1000 1000 1000 1000 1000 1000 1000 1000 1000 1000
          1000 1000 1000 1000 1000 1000 1000 1000 1000 1000 1000 1000
          1000 1000 1000 1000 1000 1000 1000 1000 1000 1000 1000 1000
          1000 1000 1000 1000 1000 1000 1000 1000 1000 1000
        </DataArray>
        <DataArray type="Float32" Name="density_n" NumberOfComponents="1" format="ascii">
          890 890 890 890 890 890 890 890 890 890 890 890
          890 890 890 890 890 890 890 890 890 890 890 890
          890 890 890 890 890 890 890 890 890 890 890 890
          890 890 890 890 890 890 890 890 890 890 890 890
          890 890 890 890 890 890 890 890 890 890 890 890
          890 890 890 890 890 890 890 890 890 890 890 890
          890 890 890 890 890 890 890 890 890 890 890 890
          890 890 890 890 890 890 890 890 890 890 890 890
          890 890 890 890 890 890 890 890 890 890 890 890
          890 890 890 890 890 890 890 890 890 890 890 890
          890 890 890 890 890 890 890 890 890 890 890 890
          890 890 890 890 890 890 890 890 890 890 890 890
          890 890 890 890 890 890 890 890 890 890 890 890
          890 890 890 890 890 890 890 890 890 890 890 890
          890 890 890 890 890 890 890 890 890 890 890 890
          890 890 890 890 890 890 890 890 890 890 890 890
          890 890 890 890 890 890 890 890 890 890
        </DataArray>
        <DataArray type="Float32" Name="saturation_w" NumberOfComponents="1" format="ascii">
          0.977609 0.770487 0.977609 0.770487 0.69642 0.69642 0.650473 0.650473 0.616111 0.616111 0.587816 0.587816
          0.56306 0.56306 0.540443 0.540443 0.519073 0.519073 0.498312 0.498312 0.477783 0.477783 0.457052 0.457052
          0.435683 0.435683 0.413239 0.413239 0.389247 0.389247 0.363167 0.363167 0.334359 0.334359 0.302038 0.302038
          0.265246 0.265246 0.222848 0.222848 0.173729 0.173729 0.117714 0.117714 0.05894 0.05894 0.0140427 0.0140427
          5.88694e-05 5.88694e-05 1.19806e-16 1.19806e-16 0 0 0 0 0 0 0 0
          0 0 0 0 0 0 0 0 0 0 0 0
          0 0 0 0 0 0 0 0 0 0 0 0
          0 0 0 0 0 0 0 0 0 0 0 0
          0 0 0 0 0 0 0 0 0 0 0 0
          0 0 0 0 0 0 0 0 0 0 0 0
          0 0 0 0 0 0 0 0 0 0 0 0
          0 0 0 0 0 0 0 0 0 0 0 0
          0 0 0 0 0 0 0 0 0 0 0 0
          0 0 0 0 0 0 0 0 0 0 0 0
          0 0 0 0 0 0 0 0 0 0 0 0
          0 0 0 0 0 0 0 0 0 0 0 0
          0 0 0 0 0 0 0 0 0 0
        </DataArray>
        <DataArray type="Float32" Name="saturation_n" NumberOfComponents="1" format="ascii">
          0.0223911 0.229513 0.0223911 0.229513 0.30358 0.30358 0.349527 0.349527 0.383889 0.383889 0.412184 0.412184
          0.43694 0.43694 0.459557 0.459557 0.480927 0.480927 0.501688 0.501688 0.522217 0.522217 0.542948 0.542948
          0.564317 0.564317 0.586761 0.586761 0.610753 0.610753 0.636833 0.636833 0.665641 0.665641 0.697962 0.697962
          0.734754 0.734754 0.777152 0.777152 0.826271 0.826271 0.882286 0.882286 0.94106 0.94106 0.985957 0.985957
          0.999941 0.999941 1 1 1 1 1 1 1 1 1 1
          1 1 1 1 1 1 1 1 1 1 1 1
          1 1 1 1 1 1 1 1 1 1 1 1
          1 1 1 1 1 1 1 1 1 1 1 1
          1 1 1 1 1 1 1 1 1 1 1 1
          1 1 1 1 1 1 1 1 1 1 1 1
          1 1 1 1 1 1 1 1 1 1 1 1
          1 1 1 1 1 1 1 1 1 1 1 1
          1 1 1 1 1 1 1 1 1 1 1 1
          1 1 1 1 1 1 1 1 1 1 1 1
          1 1 1 1 1 1 1 1 1 1 1 1
          1 1 1 1 1 1 1 1 1 1 1 1
          1 1 1 1 1 1 1 1 1 1
        </DataArray>
        <DataArray type="Float32" Name="relativePerm_w" NumberOfComponents="1" format="ascii">
          0.913399 0.352421 0.913399 0.352421 0.235225 0.235225 0.179027 0.179027 0.144091 0.144091 0.119389 0.119389
          0.100512 0.100512 0.0853098 0.0853098 0.072596 0.072596 0.0616602 0.0616602 0.05211 0.05211 0.0436377 0.0436377
          0.0360316 0.0360316 0.0291611 0.0291611 0.0229561 0.0229561 0.017395 0.017395 0.0124983 0.0124983 0.0083224 0.0083224
          0.0049499 0.0049499 0.00246624 0.00246624 0.000910942 0.000910942 0.000192002 0.000192002 1.20681e-05 1.20681e-05 3.88873e-08 3.88873e-08
          1.20104e-17 1.20104e-17 0 0 0 0 0 0 0 0 0 0
          0 0 0 0 0 0 0 0 0 0 0 0
          0 0 0 0 0 0 0 0 0 0 0 0
          0 0 0 0 0 0 0 0 0 0 0 0
          0 0 0 0 0 0 0 0 0 0 0 0
          0 0 0 0 0 0 0 0 0 0 0 0
          0 0 0 0 0 0 0 0 0 0 0 0
          0 0 0 0 0 0 0 0 0 0 0 0
          0 0 0 0 0 0 0 0 0 0 0 0
          0 0 0 0 0 0 0 0 0 0 0 0
          0 0 0 0 0 0 0 0 0 0 0 0
          0 0 0 0 0 0 0 0 0 0 0 0
          0 0 0 0 0 0 0 0 0 0
        </DataArray>
        <DataArray type="Float32" Name="relativePerm_n" NumberOfComponents="1" format="ascii">
          2.22008e-05 0.0214049 2.22008e-05 0.0214049 0.0474629 0.0474629 0.0704774 0.0704774 0.0914297 0.0914297 0.111192 0.111192
          0.130389 0.130389 0.149508 0.149508 0.168973 0.168973 0.189192 0.189192 0.210458 0.210458 0.233212 0.233212
          0.258005 0.258005 0.285496 0.285496 0.316503 0.316503 0.352067 0.352067 0.393544 0.393544 0.442709 0.442709
          0.501881 0.501881 0.573972 0.573972 0.662118 0.662118 0.767643 0.767643 0.882517 0.882517 0.97192 0.97192
          0.999882 0.999882 1 1 1 1 1 1 1 1 1 1
          1 1 1 1 1 1 1 1 1 1 1 1
          1 1 1 1 1 1 1 1 1 1 1 1
          1 1 1 1 1 1 1 1 1 1 1 1
          1 1 1 1 1 1 1 1 1 1 1 1
          1 1 1 1 1 1 1 1 1 1 1 1
          1 1 1 1 1 1 1 1 1 1 1 1
          1 1 1 1 1 1 1 1 1 1 1 1
          1 1 1 1 1 1 1 1 1 1 1 1
          1 1 1 1 1 1 1 1 1 1 1 1
          1 1 1 1 1 1 1 1 1 1 1 1
          1 1 1 1 1 1 1 1 1 1 1 1
          1 1 1 1 1 1 1 1 1 1
        </DataArray>
        <DataArray type="Float32" Name="porosity" NumberOfComponents="1" format="ascii">
          0.2 0.2 0.2 0.2 0.2 0.2 0.2 0.2 0.2 0.2 0.2 0.2
          0.2 0.2 0.2 0.2 0.2 0.2 0.2 0.2 0.2 0.2 0.2 0.2
          0.2 0.2 0.2 0.2 0.2 0.2 0.2 0.2 0.2 0.2 0.2 0.2
          0.2 0.2 0.2 0.2 0.2 0.2 0.2 0.2 0.2 0.2 0.2 0.2
          0.2 0.2 0.2 0.2 0.2 0.2 0.2 0.2 0.2 0.2 0.2 0.2
          0.2 0.2 0.2 0.2 0.2 0.2 0.2 0.2 0.2 0.2 0.2 0.2
          0.2 0.2 0.2 0.2 0.2 0.2 0.2 0.2 0.2 0.2 0.2 0.2
          0.2 0.2 0.2 0.2 0.2 0.2 0.2 0.2 0.2 0.2 0.2 0.2
          0.2 0.2 0.2 0.2 0.2 0.2 0.2 0.2 0.2 0.2 0.2 0.2
          0.2 0.2 0.2 0.2 0.2 0.2 0.2 0.2 0.2 0.2 0.2 0.2
          0.2 0.2 0.2 0.2 0.2 0.2 0.2 0.2 0.2 0.2 0.2 0.2
          0.2 0.2 0.2 0.2 0.2 0.2 0.2 0.2 0.2 0.2 0.2 0.2
          0.2 0.2 0.2 0.2 0.2 0.2 0.2 0.2 0.2 0.2 0.2 0.2
          0.2 0.2 0.2 0.2 0.2 0.2 0.2 0.2 0.2 0.2 0.2 0.2
          0.2 0.2 0.2 0.2 0.2 0.2 0.2 0.2 0.2 0.2 0.2 0.2
          0.2 0.2 0.2 0.2 0.2 0.2 0.2 0.2 0.2 0.2 0.2 0.2
          0.2 0.2 0.2 0.2 0.2 0.2 0.2 0.2 0.2 0.2
        </DataArray>
        <DataArray type="Float32" Name="temperature" NumberOfComponents="1" format="ascii">
          283.15 283.15 283.15 283.15 283.15 283.15 283.15 283.15 283.15 283.15 283.15 283.15
          283.15 283.15 283.15 283.15 283.15 283.15 283.15 283.15 283.15 283.15 283.15 283.15
          283.15 283.15 283.15 283.15 283.15 283.15 283.15 283.15 283.15 283.15 283.15 283.15
          283.15 283.15 283.15 283.15 283.15 283.15 283.15 283.15 283.15 283.15 283.15 283.15
          283.15 283.15 283.15 283.15 283.15 283.15 283.15 283.15 283.15 283.15 283.15 283.15
          283.15 283.15 283.15 283.15 283.15 283.15 283.15 283.15 283.15 283.15 283.15 283.15
          283.15 283.15 283.15 283.15 283.15 283.15 283.15 283.15 283.15 283.15 283.15 283.15
          283.15 283.15 283.15 283.15 283.15 283.15 283.15 283.15 283.15 283.15 283.15 283.15
          283.15 283.15 283.15 283.15 283.15 283.15 283.15 283.15 283.15 283.15 283.15 283.15
          283.15 283.15 283.15 283.15 283.15 283.15 283.15 283.15 283.15 283.15 283.15 283.15
          283.15 283.15 283.15 283.15 283.15 283.15 283.15 283.15 283.15 283.15 283.15 283.15
          283.15 283.15 283.15 283.15 283.15 283.15 283.15 283.15 283.15 283.15 283.15 283.15
          283.15 283.15 283.15 283.15 283.15 283.15 283.15 283.15 283.15 283.15 283.15 283.15
          283.15 283.15 283.15 283.15 283.15 283.15 283.15 283.15 283.15 283.15 283.15 283.15
          283.15 283.15 283.15 283.15 283.15 283.15 283.15 283.15 283.15 283.15 283.15 283.15
          283.15 283.15 283.15 283.15 283.15 283.15 283.15 283.15 283.15 283.15 283.15 283.15
          283.15 283.15 283.15 283.15 283.15 283.15 283.15 283.15 283.15 283.15
        </DataArray>
      </PointData>
      <Points>
        <DataArray type="Float32" Name="Coordinates" NumberOfComponents="3" format="ascii">
          0 0 0 3 0 0 0 60 0 3 60 0
          6 0 0 6 60 0 9 0 0 9 60 0
          12 0 0 12 60 0 15 0 0 15 60 0
          18 0 0 18 60 0 21 0 0 21 60 0
          24 0 0 24 60 0 27 0 0 27 60 0
          30 0 0 30 60 0 33 0 0 33 60 0
          36 0 0 36 60 0 39 0 0 39 60 0
          42 0 0 42 60 0 45 0 0 45 60 0
          48 0 0 48 60 0 51 0 0 51 60 0
          54 0 0 54 60 0 57 0 0 57 60 0
          60 0 0 60 60 0 63 0 0 63 60 0
          66 0 0 66 60 0 69 0 0 69 60 0
          72 0 0 72 60 0 75 0 0 75 60 0
          78 0 0 78 60 0 81 0 0 81 60 0
          84 0 0 84 60 0 87 0 0 87 60 0
          90 0 0 90 60 0 93 0 0 93 60 0
          96 0 0 96 60 0 99 0 0 99 60 0
          102 0 0 102 60 0 105 0 0 105 60 0
          108 0 0 108 60 0 111 0 0 111 60 0
          114 0 0 114 60 0 117 0 0 117 60 0
          120 0 0 120 60 0 123 0 0 123 60 0
          126 0 0 126 60 0 129 0 0 129 60 0
          132 0 0 132 60 0 135 0 0 135 60 0
          138 0 0 138 60 0 141 0 0 141 60 0
          144 0 0 144 60 0 147 0 0 147 60 0
          150 0 0 150 60 0 153 0 0 153 60 0
          156 0 0 156 60 0 159 0 0 159 60 0
          162 0 0 162 60 0 165 0 0 165 60 0
          168 0 0 168 60 0 171 0 0 171 60 0
          174 0 0 174 60 0 177 0 0 177 60 0
          180 0 0 180 60 0 183 0 0 183 60 0
          186 0 0 186 60 0 189 0 0 189 60 0
          192 0 0 192 60 0 195 0 0 195 60 0
          198 0 0 198 60 0 201 0 0 201 60 0
          204 0 0 204 60 0 207 0 0 207 60 0
          210 0 0 210 60 0 213 0 0 213 60 0
          216 0 0 216 60 0 219 0 0 219 60 0
          222 0 0 222 60 0 225 0 0 225 60 0
          228 0 0 228 60 0 231 0 0 231 60 0
          234 0 0 234 60 0 237 0 0 237 60 0
          240 0 0 240 60 0 243 0 0 243 60 0
          246 0 0 246 60 0 249 0 0 249 60 0
          252 0 0 252 60 0 255 0 0 255 60 0
          258 0 0 258 60 0 261 0 0 261 60 0
          264 0 0 264 60 0 267 0 0 267 60 0
          270 0 0 270 60 0 273 0 0 273 60 0
          276 0 0 276 60 0 279 0 0 279 60 0
          282 0 0 282 60 0 285 0 0 285 60 0
          288 0 0 288 60 0 291 0 0 291 60 0
          294 0 0 294 60 0 297 0 0 297 60 0
          300 0 0 300 60 0
        </DataArray>
      </Points>
      <Cells>
        <DataArray type="Int32" Name="connectivity" NumberOfComponents="1" format="ascii">
          0 1 3 2 1 4 5 3 4 6 7 5
          6 8 9 7 8 10 11 9 10 12 13 11
          12 14 15 13 14 16 17 15 16 18 19 17
          18 20 21 19 20 22 23 21 22 24 25 23
          24 26 27 25 26 28 29 27 28 30 31 29
          30 32 33 31 32 34 35 33 34 36 37 35
          36 38 39 37 38 40 41 39 40 42 43 41
          42 44 45 43 44 46 47 45 46 48 49 47
          48 50 51 49 50 52 53 51 52 54 55 53
          54 56 57 55 56 58 59 57 58 60 61 59
          60 62 63 61 62 64 65 63 64 66 67 65
          66 68 69 67 68 70 71 69 70 72 73 71
          72 74 75 73 74 76 77 75 76 78 79 77
          78 80 81 79 80 82 83 81 82 84 85 83
          84 86 87 85 86 88 89 87 88 90 91 89
          90 92 93 91 92 94 95 93 94 96 97 95
          96 98 99 97 98 100 101 99 100 102 103 101
          102 104 105 103 104 106 107 105 106 108 109 107
          108 110 111 109 110 112 113 111 112 114 115 113
          114 116 117 115 116 118 119 117 118 120 121 119
          120 122 123 121 122 124 125 123 124 126 127 125
          126 128 129 127 128 130 131 129 130 132 133 131
          132 134 135 133 134 136 137 135 136 138 139 137
          138 140 141 139 140 142 143 141 142 144 145 143
          144 146 147 145 146 148 149 147 148 150 151 149
          150 152 153 151 152 154 155 153 154 156 157 155
          156 158 159 157 158 160 161 159 160 162 163 161
          162 164 165 163 164 166 167 165 166 168 169 167
          168 170 171 169 170 172 173 171 172 174 175 173
          174 176 177 175 176 178 179 177 178 180 181 179
          180 182 183 181 182 184 185 183 184 186 187 185
          186 188 189 187 188 190 191 189 190 192 193 191
          192 194 195 193 194 196 197 195 196 198 199 197
          198 200 201 199
        </DataArray>
        <DataArray type="Int32" Name="offsets" NumberOfComponents="1" format="ascii">
          4 8 12 16 20 24 28 32 36 40 44 48
          52 56 60 64 68 72 76 80 84 88 92 96
          100 104 108 112 116 120 124 128 132 136 140 144
          148 152 156 160 164 168 172 176 180 184 188 192
          196 200 204 208 212 216 220 224 228 232 236 240
          244 248 252 256 260 264 268 272 276 280 284 288
          292 296 300 304 308 312 316 320 324 328 332 336
          340 344 348 352 356 360 364 368 372 376 380 384
          388 392 396 400
        </DataArray>
        <DataArray type="UInt8" Name="types" NumberOfComponents="1" format="ascii">
          9 9 9 9 9 9 9 9 9 9 9 9
          9 9 9 9 9 9 9 9 9 9 9 9
          9 9 9 9 9 9 9 9 9 9 9 9
          9 9 9 9 9 9 9 9 9 9 9 9
          9 9 9 9 9 9 9 9 9 9 9 9
          9 9 9 9 9 9 9 9 9 9 9 9
          9 9 9 9 9 9 9 9 9 9 9 9
          9 9 9 9 9 9 9 9 9 9 9 9
          9 9 9 9
        </DataArray>
      </Cells>
    </Piece>
  </UnstructuredGrid>
</VTKFile>
