<?xml version="1.0"?>
<VTKFile type="UnstructuredGrid" version="0.1" byte_order="LittleEndian">
  <UnstructuredGrid>
    <Piece NumberOfCells="100" NumberOfPoints="202">
      <PointData Scalars="pressure_w">
        <DataArray type="Float32" Name="pressure_w" NumberOfComponents="1" format="ascii">
          200000 199999 200000 199999 199995 199995 199991 199991 199984 199984 199976 199976
          199967 199967 199957 199957 199944 199944 199930 199930 199915 199915 199896 199896
          199875 199875 199851 199851 199822 199822 199788 199788 199747 199747 199694 199694
          199625 199625 199528 199528 199378 199378 199110 199110 198497 198497 196346 196346
          193061 193061 193035 193035 193027 193027 193018 193018 193010 193010 193002 193002
          192994 192994 192986 192986 192978 192978 192970 192970 192962 192962 192954 192954
          192946 192946 192938 192938 192930 192930 192921 192921 192913 192913 192905 192905
          192897 192897 192889 192889 192881 192881 192873 192873 192865 192865 192857 192857
          192849 192849 192841 192841 192832 192832 192824 192824 192816 192816 192808 192808
          192800 192800 192792 192792 192784 192784 192776 192776 192768 192768 192760 192760
          192752 192752 192743 192743 192735 192735 192727 192727 192719 192719 192711 192711
          192703 192703 192695 192695 192687 192687 192679 192679 192671 192671 192663 192663
          192654 192654 192646 192646 192638 192638 192630 192630 192622 192622 192614 192614
          192606 192606 192598 192598 192590 192590 192582 192582 192574 192574 192565 192565
          192557 192557 192549 192549 192541 192541 192533 192533 192525 192525 192517 192517
          192509 192509 192501 192501 192493 192493 192485 192485 192476 192476 192468 192468
          192460 192460 192452 192452 192444 192444 192436 192436 192428 192428
        </DataArray>
        <DataArray type="Float32" Name="pressure_n" NumberOfComponents="1" format="ascii">
          200506 200568 200506 200568 200594 200594 200610 200610 200621 200621 200628 200628
          200633 200633 200637 200637 200638 200638 200639 200639 200638 200638 200636 200636
          200632 200632 200628 200628 200623 200623 200618 200618 200611 200611 200604 200604
          200596 200596 200588 200588 200579 200579 200569 200569 200560 200560 200551 200551
          200543 200543 200535 200535 200527 200527 200518 200518 200510 200510 200502 200502
          200494 200494 200486 200486 200478 200478 200470 200470 200462 200462 200454 200454
          200446 200446 200438 200438 200430 200430 200421 200421 200413 200413 200405 200405
          200397 200397 200389 200389 200381 200381 200373 200373 200365 200365 200357 200357
          200349 200349 200341 200341 200332 200332 200324 200324 200316 200316 200308 200308
          200300 200300 200292 200292 200284 200284 200276 200276 200268 200268 200260 200260
          200252 200252 200243 200243 200235 200235 200227 200227 200219 200219 200211 200211
          200203 200203 200195 200195 200187 200187 200179 200179 200171 200171 200163 200163
          200154 200154 200146 200146 200138 200138 200130 200130 200122 200122 200114 200114
          200106 200106 200098 200098 200090 200090 200082 200082 200074 200074 200065 200065
          200057 200057 200049 200049 200041 200041 200033 200033 200025 200025 200017 200017
          200009 200009 200001 200001 199993 199993 199985 199985 199976 199976 199968 199968
          199960 199960 199952 199952 199944 199944 199936 199936 199928 199928
        </DataArray>
        <DataArray type="Float32" Name="density_w" NumberOfComponents="1" format="ascii">
          1000 1000 1000 1000 1000 1000 1000 1000 1000 1000 1000 1000
          1000 1000 1000 1000 1000 1000 1000 1000 1000 1000 1000 1000
          1000 1000 1000 1000 1000 1000 1000 1000 1000 1000 1000 1000
          1000 1000 1000 1000 1000 1000 1000 1000 1000 1000 1000 1000
          1000 1000 1000 1000 1000 1000 1000 1000 1000 1000 1000 1000
          1000 1000 1000 1000 1000 1000 1000 1000 1000 1000 1000 1000
          1000 1000 1000 1000 1000 1000 1000 1000 1000 1000 1000 1000
          1000 1000 1000 1000 1000 1000 1000 1000 1000 1000 1000 1000
          1000 1000 1000 1000 1000 1000 1000 1000 1000 1000 1000 1000
          1000 1000 1000 1000 1000 1000 1000 1000 1000 1000 1000 1000
          1000 1000 1000 1000 1000 1000 1000 1000 1000 1000 1000 1000
          1000 1000 1000 1000 1000 1000 1000 1000 1000 1000 1000 1000
          1000 1000 1000 1000 1000 1000 1000 1000 1000 1000 1000 1000
          1000 1000 1000 1000 1000 1000 1000 1000 1000 1000 1000 1000
          1000 1000 1000 1000 1000 1000 1000 1000 1000 1000 1000 1000
          1000 1000 1000 1000 1000 1000 1000 1000 1000 1000 1000 1000
          1000 1000 1000 1000 1000 1000 1000 1000 1000 1000
        </DataArray>
        <DataArray type="Float32" Name="density_n" NumberOfComponents="1" format="ascii">
          890 890 890 890 890 890 890 890 890 890 890 890
          890 890 890 890 890 890 890 890 890 890 890 890
          890 890 890 890 890 890 890 890 890 890 890 890
          890 890 890 890 890 890 890 890 890 890 890 890
          890 890 890 890 890 890 890 890 890 890 890 890
          890 890 890 890 890 890 890 890 890 890 890 890
          890 890 890 890 890 890 890 890 890 890 890 890
          890 890 890 890 890 890 890 890 890 890 890 890
          890 890 890 890 890 890 890 890 890 890 890 890
          890 890 890 890 890 890 890 890 890 890 890 890
          890 890 890 890 890 890 890 890 890 890 890 890
          890 890 890 890 890 890 890 890 890 890 890 890
          890 890 890 890 890 890 890 890 890 890 890 890
          890 890 890 890 890 890 890 890 890 890 890 890
          890 890 890 890 890 890 890 890 890 890 890 890
          890 890 890 890 890 890 890 890 890 890 890 890
          890 890 890 890 890 890 890 890 890 890
        </DataArray>
        <DataArray type="Float32" Name="saturation_w" NumberOfComponents="1" format="ascii">
          0.977639 0.770714 0.977639 0.770714 0.696698 0.696698 0.650777 0.650777 0.616429 0.616429 0.588142 0.588142
          0.563391 0.563391 0.540778 0.540778 0.51941 0.51941 0.498651 0.498651 0.478122 0.478122 0.457391 0.457391
          0.436021 0.436021 0.413574 0.413574 0.389576 0.389576 0.363484 0.363484 0.334651 0.334651 0.302284 0.302284
          0.265408 0.265408 0.222867 0.222867 0.173538 0.173538 0.11732 0.11732 0.0587477 0.0587477 0.0141351 0.0141351
          7.26529e-05 7.26529e-05 4.05309e-16 4.05309e-16 0 0 0 0 0 0 0 0
          0 0 0 0 0 0 0 0 0 0 0 0
          0 0 0 0 0 0 0 0 0 0 0 0
          0 0 0 0 0 0 0 0 0 0 0 0
          0 0 0 0 0 0 0 0 0 0 0 0
          0 0 0 0 0 0 0 0 0 0 0 0
          0 0 0 0 0 0 0 0 0 0 0 0
          0 0 0 0 0 0 0 0 0 0 0 0
          0 0 0 0 0 0 0 0 0 0 0 0
          0 0 0 0 0 0 0 0 0 0 0 0
          0 0 0 0 0 0 0 0 0 0 0 0
          0 0 0 0 0 0 0 0 0 0 0 0
          0 0 0 0 0 0 0 0 0 0
        </DataArray>
        <DataArray type="Float32" Name="saturation_n" NumberOfComponents="1" format="ascii">
          0.0223611 0.229286 0.0223611 0.229286 0.303302 0.303302 0.349223 0.349223 0.383571 0.383571 0.411858 0.411858
          0.436609 0.436609 0.459222 0.459222 0.48059 0.48059 0.501349 0.501349 0.521878 0.521878 0.542609 0.542609
          0.563979 0.563979 0.586426 0.586426 0.610424 0.610424 0.636516 0.636516 0.665349 0.665349 0.697716 0.697716
          0.734592 0.734592 0.777133 0.777133 0.826462 0.826462 0.88268 0.88268 0.941252 0.941252 0.985865 0.985865
          0.999927 0.999927 1 1 1 1 1 1 1 1 1 1
          1 1 1 1 1 1 1 1 1 1 1 1
          1 1 1 1 1 1 1 1 1 1 1 1
          1 1 1 1 1 1 1 1 1 1 1 1
          1 1 1 1 1 1 1 1 1 1 1 1
          1 1 1 1 1 1 1 1 1 1 1 1
          1 1 1 1 1 1 1 1 1 1 1 1
          1 1 1 1 1 1 1 1 1 1 1 1
          1 1 1 1 1 1 1 1 1 1 1 1
          1 1 1 1 1 1 1 1 1 1 1 1
          1 1 1 1 1 1 1 1 1 1 1 1
          1 1 1 1 1 1 1 1 1 1 1 1
          1 1 1 1 1 1 1 1 1 1
        </DataArray>
        <DataArray type="Float32" Name="relativePerm_w" NumberOfComponents="1" format="ascii">
          0.913511 0.352836 0.913511 0.352836 0.235602 0.235602 0.179361 0.179361 0.144388 0.144388 0.119654 0.119654
          0.100749 0.100749 0.0855214 0.0855214 0.0727849 0.0727849 0.0618284 0.0618284 0.0522582 0.0522582 0.0437672 0.0437672
          0.0361434 0.0361434 0.0292559 0.0292559 0.023034 0.023034 0.0174558 0.0174558 0.012542 0.012542 0.00834952 0.00834952
          0.00496198 0.00496198 0.0024671 0.0024671 0.000906938 0.000906938 0.000189446 0.000189446 1.19115e-05 1.19115e-05 3.99202e-08 3.99202e-08
          2.7862e-17 2.7862e-17 0 0 0 0 0 0 0 0 0 0
          0 0 0 0 0 0 0 0 0 0 0 0
          0 0 0 0 0 0 0 0 0 0 0 0
          0 0 0 0 0 0 0 0 0 0 0 0
          0 0 0 0 0 0 0 0 0 0 0 0
          0 0 0 0 0 0 0 0 0 0 0 0
          0 0 0 0 0 0 0 0 0 0 0 0
          0 0 0 0 0 0 0 0 0 0 0 0
          0 0 0 0 0 0 0 0 0 0 0 0
          0 0 0 0 0 0 0 0 0 0 0 0
          0 0 0 0 0 0 0 0 0 0 0 0
          0 0 0 0 0 0 0 0 0 0 0 0
          0 0 0 0 0 0 0 0 0 0
        </DataArray>
        <DataArray type="Float32" Name="relativePerm_n" NumberOfComponents="1" format="ascii">
          2.21118e-05 0.0213443 2.21118e-05 0.0213443 0.0473401 0.0473401 0.0703069 0.0703069 0.091221 0.091221 0.110951 0.110951
          0.13012 0.13012 0.149214 0.149214 0.168655 0.168655 0.188851 0.188851 0.210096 0.210096 0.232829 0.232829
          0.257602 0.257602 0.285074 0.285074 0.316066 0.316066 0.351624 0.351624 0.393112 0.393112 0.442325 0.442325
          0.501614 0.501614 0.573938 0.573938 0.66247 0.66247 0.768401 0.768401 0.882898 0.882898 0.971735 0.971735
          0.999855 0.999855 1 1 1 1 1 1 1 1 1 1
          1 1 1 1 1 1 1 1 1 1 1 1
          1 1 1 1 1 1 1 1 1 1 1 1
          1 1 1 1 1 1 1 1 1 1 1 1
          1 1 1 1 1 1 1 1 1 1 1 1
          1 1 1 1 1 1 1 1 1 1 1 1
          1 1 1 1 1 1 1 1 1 1 1 1
          1 1 1 1 1 1 1 1 1 1 1 1
          1 1 1 1 1 1 1 1 1 1 1 1
          1 1 1 1 1 1 1 1 1 1 1 1
          1 1 1 1 1 1 1 1 1 1 1 1
          1 1 1 1 1 1 1 1 1 1 1 1
          1 1 1 1 1 1 1 1 1 1
        </DataArray>
        <DataArray type="Float32" Name="porosity" NumberOfComponents="1" format="ascii">
          0.2 0.2 0.2 0.2 0.2 0.2 0.2 0.2 0.2 0.2 0.2 0.2
          0.2 0.2 0.2 0.2 0.2 0.2 0.2 0.2 0.2 0.2 0.2 0.2
          0.2 0.2 0.2 0.2 0.2 0.2 0.2 0.2 0.2 0.2 0.2 0.2
          0.2 0.2 0.2 0.2 0.2 0.2 0.2 0.2 0.2 0.2 0.2 0.2
          0.2 0.2 0.2 0.2 0.2 0.2 0.2 0.2 0.2 0.2 0.2 0.2
          0.2 0.2 0.2 0.2 0.2 0.2 0.2 0.2 0.2 0.2 0.2 0.2
          0.2 0.2 0.2 0.2 0.2 0.2 0.2 0.2 0.2 0.2 0.2 0.2
          0.2 0.2 0.2 0.2 0.2 0.2 0.2 0.2 0.2 0.2 0.2 0.2
          0.2 0.2 0.2 0.2 0.2 0.2 0.2 0.2 0.2 0.2 0.2 0.2
          0.2 0.2 0.2 0.2 0.2 0.2 0.2 0.2 0.2 0.2 0.2 0.2
          0.2 0.2 0.2 0.2 0.2 0.2 0.2 0.2 0.2 0.2 0.2 0.2
          0.2 0.2 0.2 0.2 0.2 0.2 0.2 0.2 0.2 0.2 0.2 0.2
          0.2 0.2 0.2 0.2 0.2 0.2 0.2 0.2 0.2 0.2 0.2 0.2
          0.2 0.2 0.2 0.2 0.2 0.2 0.2 0.2 0.2 0.2 0.2 0.2
          0.2 0.2 0.2 0.2 0.2 0.2 0.2 0.2 0.2 0.2 0.2 0.2
          0.2 0.2 0.2 0.2 0.2 0.2 0.2 0.2 0.2 0.2 0.2 0.2
          0.2 0.2 0.2 0.2 0.2 0.2 0.2 0.2 0.2 0.2
        </DataArray>
        <DataArray type="Float32" Name="temperature" NumberOfComponents="1" format="ascii">
          283.15 283.15 283.15 283.15 283.15 283.15 283.15 283.15 283.15 283.15 283.15 283.15
          283.15 283.15 283.15 283.15 283.15 283.15 283.15 283.15 283.15 283.15 283.15 283.15
          283.15 283.15 283.15 283.15 283.15 283.15 283.15 283.15 283.15 283.15 283.15 283.15
          283.15 283.15 283.15 283.15 283.15 283.15 283.15 283.15 283.15 283.15 283.15 283.15
          283.15 283.15 283.15 283.15 283.15 283.15 283.15 283.15 283.15 283.15 283.15 283.15
          283.15 283.15 283.15 283.15 283.15 283.15 283.15 283.15 283.15 283.15 283.15 283.15
          283.15 283.15 283.15 283.15 283.15 283.15 283.15 283.15 283.15 283.15 283.15 283.15
          283.15 283.15 283.15 283.15 283.15 283.15 283.15 283.15 283.15 283.15 283.15 283.15
          283.15 283.15 283.15 283.15 283.15 283.15 283.15 283.15 283.15 283.15 283.15 283.15
          283.15 283.15 283.15 283.15 283.15 283.15 283.15 283.15 283.15 283.15 283.15 283.15
          283.15 283.15 283.15 283.15 283.15 283.15 283.15 283.15 283.15 283.15 283.15 283.15
          283.15 283.15 283.15 283.15 283.15 283.15 283.15 283.15 283.15 283.15 283.15 283.15
          283.15 283.15 283.15 283.15 283.15 283.15 283.15 283.15 283.15 283.15 283.15 283.15
          283.15 283.15 283.15 283.15 283.15 283.15 283.15 283.15 283.15 283.15 283.15 283.15
          283.15 283.15 283.15 283.15 283.15 283.15 283.15 283.15 283.15 283.15 283.15 283.15
          283.15 283.15 283.15 283.15 283.15 283.15 283.15 283.15 283.15 283.15 283.15 283.15
          283.15 283.15 283.15 283.15 283.15 283.15 283.15 283.15 283.15 283.15
        </DataArray>
      </PointData>
      <Points>
        <DataArray type="Float32" Name="Coordinates" NumberOfComponents="3" format="ascii">
          0 0 0 3 0 0 0 60 0 3 60 0
          6 0 0 6 60 0 9 0 0 9 60 0
          12 0 0 12 60 0 15 0 0 15 60 0
          18 0 0 18 60 0 21 0 0 21 60 0
          24 0 0 24 60 0 27 0 0 27 60 0
          30 0 0 30 60 0 33 0 0 33 60 0
          36 0 0 36 60 0 39 0 0 39 60 0
          42 0 0 42 60 0 45 0 0 45 60 0
          48 0 0 48 60 0 51 0 0 51 60 0
          54 0 0 54 60 0 57 0 0 57 60 0
          60 0 0 60 60 0 63 0 0 63 60 0
          66 0 0 66 60 0 69 0 0 69 60 0
          72 0 0 72 60 0 75 0 0 75 60 0
          78 0 0 78 60 0 81 0 0 81 60 0
          84 0 0 84 60 0 87 0 0 87 60 0
          90 0 0 90 60 0 93 0 0 93 60 0
          96 0 0 96 60 0 99 0 0 99 60 0
          102 0 0 102 60 0 105 0 0 105 60 0
          108 0 0 108 60 0 111 0 0 111 60 0
          114 0 0 114 60 0 117 0 0 117 60 0
          120 0 0 120 60 0 123 0 0 123 60 0
          126 0 0 126 60 0 129 0 0 129 60 0
          132 0 0 132 60 0 135 0 0 135 60 0
          138 0 0 138 60 0 141 0 0 141 60 0
          144 0 0 144 60 0 147 0 0 147 60 0
          150 0 0 150 60 0 153 0 0 153 60 0
          156 0 0 156 60 0 159 0 0 159 60 0
          162 0 0 162 60 0 165 0 0 165 60 0
          168 0 0 168 60 0 171 0 0 171 60 0
          174 0 0 174 60 0 177 0 0 177 60 0
          180 0 0 180 60 0 183 0 0 183 60 0
          186 0 0 186 60 0 189 0 0 189 60 0
          192 0 0 192 60 0 195 0 0 195 60 0
          198 0 0 198 60 0 201 0 0 201 60 0
          204 0 0 204 60 0 207 0 0 207 60 0
          210 0 0 210 60 0 213 0 0 213 60 0
          216 0 0 216 60 0 219 0 0 219 60 0
          222 0 0 222 60 0 225 0 0 225 60 0
          228 0 0 228 60 0 231 0 0 231 60 0
          234 0 0 234 60 0 237 0 0 237 60 0
          240 0 0 240 60 0 243 0 0 243 60 0
          246 0 0 246 60 0 249 0 0 249 60 0
          252 0 0 252 60 0 255 0 0 255 60 0
          258 0 0 258 60 0 261 0 0 261 60 0
          264 0 0 264 60 0 267 0 0 267 60 0
          270 0 0 270 60 0 273 0 0 273 60 0
          276 0 0 276 60 0 279 0 0 279 60 0
          282 0 0 282 60 0 285 0 0 285 60 0
          288 0 0 288 60 0 291 0 0 291 60 0
          294 0 0 294 60 0 297 0 0 297 60 0
          300 0 0 300 60 0
        </DataArray>
      </Points>
      <Cells>
        <DataArray type="Int32" Name="connectivity" NumberOfComponents="1" format="ascii">
          0 1 3 2 1 4 5 3 4 6 7 5
          6 8 9 7 8 10 11 9 10 12 13 11
          12 14 15 13 14 16 17 15 16 18 19 17
          18 20 21 19 20 22 23 21 22 24 25 23
          24 26 27 25 26 28 29 27 28 30 31 29
          30 32 33 31 32 34 35 33 34 36 37 35
          36 38 39 37 38 40 41 39 40 42 43 41
          42 44 45 43 44 46 47 45 46 48 49 47
          48 50 51 49 50 52 53 51 52 54 55 53
          54 56 57 55 56 58 59 57 58 60 61 59
          60 62 63 61 62 64 65 63 64 66 67 65
          66 68 69 67 68 70 71 69 70 72 73 71
          72 74 75 73 74 76 77 75 76 78 79 77
          78 80 81 79 80 82 83 81 82 84 85 83
          84 86 87 85 86 88 89 87 88 90 91 89
          90 92 93 91 92 94 95 93 94 96 97 95
          96 98 99 97 98 100 101 99 100 102 103 101
          102 104 105 103 104 106 107 105 106 108 109 107
          108 110 111 109 110 112 113 111 112 114 115 113
          114 116 117 115 116 118 119 117 118 120 121 119
          120 122 123 121 122 124 125 123 124 126 127 125
          126 128 129 127 128 130 131 129 130 132 133 131
          132 134 135 133 134 136 137 135 136 138 139 137
          138 140 141 139 140 142 143 141 142 144 145 143
          144 146 147 145 146 148 149 147 148 150 151 149
          150 152 153 151 152 154 155 153 154 156 157 155
          156 158 159 157 158 160 161 159 160 162 163 161
          162 164 165 163 164 166 167 165 166 168 169 167
          168 170 171 169 170 172 173 171 172 174 175 173
          174 176 177 175 176 178 179 177 178 180 181 179
          180 182 183 181 182 184 185 183 184 186 187 185
          186 188 189 187 188 190 191 189 190 192 193 191
          192 194 195 193 194 196 197 195 196 198 199 197
          198 200 201 199
        </DataArray>
        <DataArray type="Int32" Name="offsets" NumberOfComponents="1" format="ascii">
          4 8 12 16 20 24 28 32 36 40 44 48
          52 56 60 64 68 72 76 80 84 88 92 96
          100 104 108 112 116 120 124 128 132 136 140 144
          148 152 156 160 164 168 172 176 180 184 188 192
          196 200 204 208 212 216 220 224 228 232 236 240
          244 248 252 256 260 264 268 272 276 280 284 288
          292 296 300 304 308 312 316 320 324 328 332 336
          340 344 348 352 356 360 364 368 372 376 380 384
          388 392 396 400
        </DataArray>
        <DataArray type="UInt8" Name="types" NumberOfComponents="1" format="ascii">
          9 9 9 9 9 9 9 9 9 9 9 9
          9 9 9 9 9 9 9 9 9 9 9 9
          9 9 9 9 9 9 9 9 9 9 9 9
          9 9 9 9 9 9 9 9 9 9 9 9
          9 9 9 9 9 9 9 9 9 9 9 9
          9 9 9 9 9 9 9 9 9 9 9 9
          9 9 9 9 9 9 9 9 9 9 9 9
          9 9 9 9 9 9 9 9 9 9 9 9
          9 9 9 9
        </DataArray>
      </Cells>
    </Piece>
  </UnstructuredGrid>
</VTKFile>
