<?xml version="1.0"?>
<VTKFile type="UnstructuredGrid" version="0.1" byte_order="LittleEndian">
  <UnstructuredGrid>
    <Piece NumberOfCells="100" NumberOfPoints="202">
      <CellData Scalars="wetting pressure" Vectors="wetting-velocity">
        <DataArray type="Float32" Name="wetting pressure" NumberOfComponents="1" format="ascii">
          199999 199996 199990 199982 199973 199962 199949 199934 199917 199897 199875 199849
          199818 199781 199735 199676 199594 199468 199242 198678 195570 192740 192731 192723
          192715 192707 192699 192691 192683 192675 192667 192659 192651 192642 192634 192626
          192618 192610 192602 192594 192586 192578 192570 192562 192553 192545 192537 192529
          192521 192513 192505 192497 192489 192481 192473 192464 192456 192448 192440 192432
          192424 192416 192408 192400 192392 192384 192375 192367 192359 192351 192343 192335
          192327 192319 192311 192303 192295 192286 192278 192270 192262 192254 192246 192238
          192230 192222 192214 192206 192197 192189 192181 192173 192165 192157 192149 192141
          192133 192125 192117 192108
        </DataArray>
        <DataArray type="Float32" Name="nonwetting pressure" NumberOfComponents="1" format="ascii">
          200561 200592 200607 200616 200622 200625 200627 200626 200623 200619 200614 200608
          200601 200593 200583 200572 200559 200541 200514 200453 200215 200240 200231 200223
          200215 200207 200199 200191 200183 200175 200167 200159 200151 200142 200134 200126
          200118 200110 200102 200094 200086 200078 200070 200062 200053 200045 200037 200029
          200021 200013 200005 199997 199989 199981 199973 199964 199956 199948 199940 199932
          199924 199916 199908 199900 199892 199884 199875 199867 199859 199851 199843 199835
          199827 199819 199811 199803 199795 199786 199778 199770 199762 199754 199746 199738
          199730 199722 199714 199706 199697 199689 199681 199673 199665 199657 199649 199641
          199633 199625 199617 199608
        </DataArray>
        <DataArray type="Float32" Name="capillary pressure" NumberOfComponents="1" format="ascii">
          561.87 596.497 617.3 634.065 649.173 663.717 678.413 691.93 706.262 721.866 739.302 759.311
          782.937 811.741 848.223 896.709 965.524 1073.22 1271.55 1774.55 4644.96 7499.85 7500 7500
          7500 7500 7500 7500 7500 7500 7500 7500 7500 7500 7500 7500
          7500 7500 7500 7500 7500 7500 7500 7500 7500 7500 7500 7500
          7500 7500 7500 7500 7500 7500 7500 7500 7500 7500 7500 7500
          7500 7500 7500 7500 7500 7500 7500 7500 7500 7500 7500 7500
          7500 7500 7500 7500 7500 7500 7500 7500 7500 7500 7500 7500
          7500 7500 7500 7500 7500 7500 7500 7500 7500 7500 7500 7500
          7500 7500 7500 7500
        </DataArray>
        <DataArray type="Float32" Name="wetting saturation" NumberOfComponents="1" format="ascii">
          0.791943 0.702687 0.656139 0.621912 0.593314 0.567608 0.543296 0.522289 0.501322 0.479902 0.457555 0.433785
          0.408034 0.379633 0.347737 0.311225 0.268551 0.217518 0.155193 0.080021 0.0119791 7.68242e-07 4.23495e-27 0
          0 0 0 0 0 0 0 0 0 0 0 0
          0 0 0 0 0 0 0 0 0 0 0 0
          0 0 0 0 0 0 0 0 0 0 0 0
          0 0 0 0 0 0 0 0 0 0 0 0
          0 0 0 0 0 0 0 0 0 0 0 0
          0 0 0 0 0 0 0 0 0 0 0 0
          0 0 0 0
        </DataArray>
        <DataArray type="Float32" Name="nonwetting saturation" NumberOfComponents="1" format="ascii">
          0.208057 0.297313 0.343861 0.378088 0.406686 0.432392 0.456704 0.477711 0.498678 0.520098 0.542445 0.566215
          0.591966 0.620367 0.652263 0.688775 0.731449 0.782482 0.844807 0.919979 0.988021 0.999999 1 1
          1 1 1 1 1 1 1 1 1 1 1 1
          1 1 1 1 1 1 1 1 1 1 1 1
          1 1 1 1 1 1 1 1 1 1 1 1
          1 1 1 1 1 1 1 1 1 1 1 1
          1 1 1 1 1 1 1 1 1 1 1 1
          1 1 1 1 1 1 1 1 1 1 1 1
          1 1 1 1
        </DataArray>
        <DataArray type="Float32" Name="wetting-velocity" NumberOfComponents="3" format="ascii">
          3.75896e-05 0 0 3.71555e-05 0 0 3.66106e-05 0 0 3.59931e-05 0 0
          3.53125e-05 0 0 3.45694e-05 0 0 3.37576e-05 0 0 3.28726e-05 0 0
          3.19074e-05 0 0 3.08465e-05 0 0 2.967e-05 0 0 2.83529e-05 0 0
          2.68632e-05 0 0 2.51591e-05 0 0 2.31843e-05 0 0 2.08609e-05 0 0
          1.80788e-05 0 0 1.46857e-05 0 0 1.05212e-05 0 0 5.69011e-06 0 0
          1.57675e-06 0 0 6.51094e-10 0 0 1.42091e-29 0 0 0 0 0
          0 0 0 0 0 0 0 0 0 0 0 0
          0 0 0 0 0 0 0 0 0 0 0 0
          0 0 0 0 0 0 0 0 0 0 0 0
          0 0 0 0 0 0 0 0 0 0 0 0
          0 0 0 0 0 0 0 0 0 0 0 0
          0 0 0 0 0 0 0 0 0 0 0 0
          0 0 0 0 0 0 0 0 0 0 0 0
          0 0 0 0 0 0 0 0 0 0 0 0
          0 0 0 0 0 0 0 0 0 0 0 0
          0 0 0 0 0 0 0 0 0 0 0 0
          0 0 0 0 0 0 0 0 0 0 0 0
          0 0 0 0 0 0 0 0 0 0 0 0
          0 0 0 0 0 0 0 0 0 0 0 0
          0 0 0 0 0 0 0 0 0 0 0 0
          0 0 0 0 0 0 0 0 0 0 0 0
          0 0 0 0 0 0 0 0 0 0 0 0
          0 0 0 0 0 0 0 0 0 0 0 0
          0 0 0 0 0 0 0 0 0 0 0 0
          0 0 0 0 0 0 0 0 0 0 0 0
        </DataArray>
        <DataArray type="Float32" Name="non-wetting-velocity" NumberOfComponents="3" format="ascii">
          -3.88171e-06 0 0 -3.4476e-06 0 0 -2.90273e-06 0 0 -2.28521e-06 0 0
          -1.60467e-06 0 0 -8.61509e-07 0 0 -4.97244e-08 0 0 8.35262e-07 0 0
          1.80043e-06 0 0 2.86139e-06 0 0 4.03791e-06 0 0 5.35499e-06 0 0
          6.84463e-06 0 0 8.54872e-06 0 0 1.05235e-05 0 0 1.28469e-05 0 0
          1.56291e-05 0 0 1.90222e-05 0 0 2.31866e-05 0 0 2.80178e-05 0 0
          3.21311e-05 0 0 3.37072e-05 0 0 3.37079e-05 0 0 3.37079e-05 0 0
          3.37079e-05 0 0 3.37079e-05 0 0 3.37079e-05 0 0 3.37079e-05 0 0
          3.37079e-05 0 0 3.37079e-05 0 0 3.37079e-05 0 0 3.37079e-05 0 0
          3.37079e-05 0 0 3.37079e-05 0 0 3.37079e-05 0 0 3.37079e-05 0 0
          3.37079e-05 0 0 3.37079e-05 0 0 3.37079e-05 0 0 3.37079e-05 0 0
          3.37079e-05 0 0 3.37079e-05 0 0 3.37079e-05 0 0 3.37079e-05 0 0
          3.37079e-05 0 0 3.37079e-05 0 0 3.37079e-05 0 0 3.37079e-05 0 0
          3.37079e-05 0 0 3.37079e-05 0 0 3.37079e-05 0 0 3.37079e-05 0 0
          3.37079e-05 0 0 3.37079e-05 0 0 3.37079e-05 0 0 3.37079e-05 0 0
          3.37079e-05 0 0 3.37079e-05 0 0 3.37079e-05 0 0 3.37079e-05 0 0
          3.37079e-05 0 0 3.37079e-05 0 0 3.37079e-05 0 0 3.37079e-05 0 0
          3.37079e-05 0 0 3.37079e-05 0 0 3.37079e-05 0 0 3.37079e-05 0 0
          3.37079e-05 0 0 3.37079e-05 0 0 3.37079e-05 0 0 3.37079e-05 0 0
          3.37079e-05 0 0 3.37079e-05 0 0 3.37079e-05 0 0 3.37079e-05 0 0
          3.37079e-05 0 0 3.37079e-05 0 0 3.37079e-05 0 0 3.37079e-05 0 0
          3.37079e-05 0 0 3.37079e-05 0 0 3.37079e-05 0 0 3.37079e-05 0 0
          3.37079e-05 0 0 3.37079e-05 0 0 3.37079e-05 0 0 3.37079e-05 0 0
          3.37079e-05 0 0 3.37079e-05 0 0 3.37079e-05 0 0 3.37079e-05 0 0
          3.37079e-05 0 0 3.37079e-05 0 0 3.37079e-05 0 0 3.37079e-05 0 0
          3.37079e-05 0 0 3.37079e-05 0 0 3.37079e-05 0 0 3.37079e-05 0 0
        </DataArray>
      </CellData>
      <Points>
        <DataArray type="Float32" Name="Coordinates" NumberOfComponents="3" format="ascii">
          0 0 0 3 0 0 0 60 0 3 60 0
          6 0 0 6 60 0 9 0 0 9 60 0
          12 0 0 12 60 0 15 0 0 15 60 0
          18 0 0 18 60 0 21 0 0 21 60 0
          24 0 0 24 60 0 27 0 0 27 60 0
          30 0 0 30 60 0 33 0 0 33 60 0
          36 0 0 36 60 0 39 0 0 39 60 0
          42 0 0 42 60 0 45 0 0 45 60 0
          48 0 0 48 60 0 51 0 0 51 60 0
          54 0 0 54 60 0 57 0 0 57 60 0
          60 0 0 60 60 0 63 0 0 63 60 0
          66 0 0 66 60 0 69 0 0 69 60 0
          72 0 0 72 60 0 75 0 0 75 60 0
          78 0 0 78 60 0 81 0 0 81 60 0
          84 0 0 84 60 0 87 0 0 87 60 0
          90 0 0 90 60 0 93 0 0 93 60 0
          96 0 0 96 60 0 99 0 0 99 60 0
          102 0 0 102 60 0 105 0 0 105 60 0
          108 0 0 108 60 0 111 0 0 111 60 0
          114 0 0 114 60 0 117 0 0 117 60 0
          120 0 0 120 60 0 123 0 0 123 60 0
          126 0 0 126 60 0 129 0 0 129 60 0
          132 0 0 132 60 0 135 0 0 135 60 0
          138 0 0 138 60 0 141 0 0 141 60 0
          144 0 0 144 60 0 147 0 0 147 60 0
          150 0 0 150 60 0 153 0 0 153 60 0
          156 0 0 156 60 0 159 0 0 159 60 0
          162 0 0 162 60 0 165 0 0 165 60 0
          168 0 0 168 60 0 171 0 0 171 60 0
          174 0 0 174 60 0 177 0 0 177 60 0
          180 0 0 180 60 0 183 0 0 183 60 0
          186 0 0 186 60 0 189 0 0 189 60 0
          192 0 0 192 60 0 195 0 0 195 60 0
          198 0 0 198 60 0 201 0 0 201 60 0
          204 0 0 204 60 0 207 0 0 207 60 0
          210 0 0 210 60 0 213 0 0 213 60 0
          216 0 0 216 60 0 219 0 0 219 60 0
          222 0 0 222 60 0 225 0 0 225 60 0
          228 0 0 228 60 0 231 0 0 231 60 0
          234 0 0 234 60 0 237 0 0 237 60 0
          240 0 0 240 60 0 243 0 0 243 60 0
          246 0 0 246 60 0 249 0 0 249 60 0
          252 0 0 252 60 0 255 0 0 255 60 0
          258 0 0 258 60 0 261 0 0 261 60 0
          264 0 0 264 60 0 267 0 0 267 60 0
          270 0 0 270 60 0 273 0 0 273 60 0
          276 0 0 276 60 0 279 0 0 279 60 0
          282 0 0 282 60 0 285 0 0 285 60 0
          288 0 0 288 60 0 291 0 0 291 60 0
          294 0 0 294 60 0 297 0 0 297 60 0
          300 0 0 300 60 0
        </DataArray>
      </Points>
      <Cells>
        <DataArray type="Int32" Name="connectivity" NumberOfComponents="1" format="ascii">
          0 1 3 2 1 4 5 3 4 6 7 5
          6 8 9 7 8 10 11 9 10 12 13 11
          12 14 15 13 14 16 17 15 16 18 19 17
          18 20 21 19 20 22 23 21 22 24 25 23
          24 26 27 25 26 28 29 27 28 30 31 29
          30 32 33 31 32 34 35 33 34 36 37 35
          36 38 39 37 38 40 41 39 40 42 43 41
          42 44 45 43 44 46 47 45 46 48 49 47
          48 50 51 49 50 52 53 51 52 54 55 53
          54 56 57 55 56 58 59 57 58 60 61 59
          60 62 63 61 62 64 65 63 64 66 67 65
          66 68 69 67 68 70 71 69 70 72 73 71
          72 74 75 73 74 76 77 75 76 78 79 77
          78 80 81 79 80 82 83 81 82 84 85 83
          84 86 87 85 86 88 89 87 88 90 91 89
          90 92 93 91 92 94 95 93 94 96 97 95
          96 98 99 97 98 100 101 99 100 102 103 101
          102 104 105 103 104 106 107 105 106 108 109 107
          108 110 111 109 110 112 113 111 112 114 115 113
          114 116 117 115 116 118 119 117 118 120 121 119
          120 122 123 121 122 124 125 123 124 126 127 125
          126 128 129 127 128 130 131 129 130 132 133 131
          132 134 135 133 134 136 137 135 136 138 139 137
          138 140 141 139 140 142 143 141 142 144 145 143
          144 146 147 145 146 148 149 147 148 150 151 149
          150 152 153 151 152 154 155 153 154 156 157 155
          156 158 159 157 158 160 161 159 160 162 163 161
          162 164 165 163 164 166 167 165 166 168 169 167
          168 170 171 169 170 172 173 171 172 174 175 173
          174 176 177 175 176 178 179 177 178 180 181 179
          180 182 183 181 182 184 185 183 184 186 187 185
          186 188 189 187 188 190 191 189 190 192 193 191
          192 194 195 193 194 196 197 195 196 198 199 197
          198 200 201 199
        </DataArray>
        <DataArray type="Int32" Name="offsets" NumberOfComponents="1" format="ascii">
          4 8 12 16 20 24 28 32 36 40 44 48
          52 56 60 64 68 72 76 80 84 88 92 96
          100 104 108 112 116 120 124 128 132 136 140 144
          148 152 156 160 164 168 172 176 180 184 188 192
          196 200 204 208 212 216 220 224 228 232 236 240
          244 248 252 256 260 264 268 272 276 280 284 288
          292 296 300 304 308 312 316 320 324 328 332 336
          340 344 348 352 356 360 364 368 372 376 380 384
          388 392 396 400
        </DataArray>
        <DataArray type="UInt8" Name="types" NumberOfComponents="1" format="ascii">
          9 9 9 9 9 9 9 9 9 9 9 9
          9 9 9 9 9 9 9 9 9 9 9 9
          9 9 9 9 9 9 9 9 9 9 9 9
          9 9 9 9 9 9 9 9 9 9 9 9
          9 9 9 9 9 9 9 9 9 9 9 9
          9 9 9 9 9 9 9 9 9 9 9 9
          9 9 9 9 9 9 9 9 9 9 9 9
          9 9 9 9 9 9 9 9 9 9 9 9
          9 9 9 9
        </DataArray>
      </Cells>
    </Piece>
  </UnstructuredGrid>
</VTKFile>
