<?xml version="1.0"?>
<VTKFile type="UnstructuredGrid" version="0.1" byte_order="LittleEndian">
  <UnstructuredGrid>
    <Piece NumberOfCells="4096" NumberOfPoints="4225">
      <PointData Scalars="pressure_l">
        <DataArray type="Float32" Name="pressure_l" NumberOfComponents="1" format="ascii">
          9.90882e+06 9.91042e+06 9.90378e+06 9.90442e+06 9.91137e+06 9.90529e+06 9.91224e+06 9.90614e+06 9.91309e+06 9.90698e+06 9.91394e+06 9.90782e+06
          9.91479e+06 9.90867e+06 9.91564e+06 9.90953e+06 9.91651e+06 9.9104e+06 9.9174e+06 9.91128e+06 9.9183e+06 9.91218e+06 9.91922e+06 9.9131e+06
          9.92017e+06 9.91404e+06 9.92114e+06 9.91502e+06 9.92215e+06 9.91602e+06 9.9232e+06 9.91706e+06 9.92429e+06 9.91815e+06 9.92543e+06 9.91929e+06
          9.92665e+06 9.9205e+06 9.92794e+06 9.92178e+06 9.92932e+06 9.92315e+06 9.93082e+06 9.92464e+06 9.93246e+06 9.92628e+06 9.93445e+06 9.92802e+06
          9.93709e+06 9.93097e+06 9.93919e+06 9.93341e+06 9.94106e+06 9.93539e+06 9.9425e+06 9.93683e+06 9.94346e+06 9.93777e+06 9.94394e+06 9.93824e+06
          9.94395e+06 9.93826e+06 9.94349e+06 9.93781e+06 9.94259e+06 9.93686e+06 9.94139e+06 9.93529e+06 9.94025e+06 9.93431e+06 9.93918e+06 9.93329e+06
          9.93804e+06 9.93218e+06 9.93676e+06 9.93093e+06 9.93528e+06 9.92947e+06 9.93358e+06 9.92776e+06 9.93161e+06 9.92589e+06 9.9301e+06 9.92414e+06
          9.92914e+06 9.92323e+06 9.9283e+06 9.92239e+06 9.92754e+06 9.92163e+06 9.92687e+06 9.92096e+06 9.92628e+06 9.92036e+06 9.92579e+06 9.91986e+06
          9.92546e+06 9.91941e+06 9.92456e+06 9.91846e+06 9.92353e+06 9.91743e+06 9.9225e+06 9.91639e+06 9.92147e+06 9.91535e+06 9.92044e+06 9.91433e+06
          9.91943e+06 9.91331e+06 9.91842e+06 9.9123e+06 9.91742e+06 9.9113e+06 9.91642e+06 9.91031e+06 9.91544e+06 9.90932e+06 9.91445e+06 9.90834e+06
          9.91346e+06 9.90736e+06 9.91247e+06 9.90637e+06 9.91146e+06 9.90538e+06 9.91038e+06 9.90436e+06 9.90875e+06 9.90352e+06 9.89772e+06 9.89844e+06
          9.89922e+06 9.90004e+06 9.90087e+06 9.90171e+06 9.90255e+06 9.9034e+06 9.90426e+06 9.90514e+06 9.90604e+06 9.90695e+06 9.90789e+06 9.90886e+06
          9.90985e+06 9.91088e+06 9.91196e+06 9.91309e+06 9.91427e+06 9.91553e+06 9.91687e+06 9.91832e+06 9.91991e+06 9.92168e+06 9.92414e+06 9.92701e+06
          9.92903e+06 9.93044e+06 9.93134e+06 9.9318e+06 9.93182e+06 9.93139e+06 9.93046e+06 9.92879e+06 9.92789e+06 9.92696e+06 9.92592e+06 9.92475e+06
          9.92337e+06 9.92171e+06 9.91971e+06 9.91821e+06 9.91724e+06 9.91638e+06 9.91563e+06 9.91496e+06 9.91436e+06 9.91384e+06 9.91336e+06 9.91237e+06
          9.91132e+06 9.91027e+06 9.90923e+06 9.9082e+06 9.90719e+06 9.90618e+06 9.90518e+06 9.90419e+06 9.90321e+06 9.90223e+06 9.90125e+06 9.90028e+06
          9.89931e+06 9.89837e+06 9.8975e+06 9.89161e+06 9.89236e+06 9.89314e+06 9.89394e+06 9.89476e+06 9.89558e+06 9.89642e+06 9.89726e+06 9.89812e+06
          9.89899e+06 9.89988e+06 9.90078e+06 9.90171e+06 9.90267e+06 9.90365e+06 9.90466e+06 9.90572e+06 9.90682e+06 9.90798e+06 9.90919e+06 9.91049e+06
          9.91187e+06 9.91337e+06 9.91504e+06 9.91683e+06 9.91933e+06 9.9212e+06 9.92249e+06 9.92333e+06 9.92375e+06 9.92378e+06 9.92341e+06 9.92262e+06
          9.92132e+06 9.92053e+06 9.91969e+06 9.91876e+06 9.91769e+06 9.91646e+06 9.91496e+06 9.91317e+06 9.9121e+06 9.91112e+06 9.91029e+06 9.90955e+06
          9.90888e+06 9.90829e+06 9.90776e+06 9.90728e+06 9.90627e+06 9.90519e+06 9.90414e+06 9.9031e+06 9.90207e+06 9.90106e+06 9.90005e+06 9.89906e+06
          9.89807e+06 9.89709e+06 9.89611e+06 9.89514e+06 9.89418e+06 9.89323e+06 9.8923e+06 9.8914e+06 9.88548e+06 9.88625e+06 9.88703e+06 9.88782e+06
          9.88863e+06 9.88945e+06 9.89027e+06 9.89111e+06 9.89196e+06 9.89282e+06 9.8937e+06 9.8946e+06 9.89551e+06 9.89645e+06 9.89741e+06 9.89841e+06
          9.89944e+06 9.9005e+06 9.90162e+06 9.90278e+06 9.90401e+06 9.90531e+06 9.90669e+06 9.90815e+06 9.9097e+06 9.91118e+06 9.9125e+06 9.91353e+06
          9.91422e+06 9.9146e+06 9.91465e+06 9.91437e+06 9.91375e+06 9.91286e+06 9.91225e+06 9.91155e+06 9.91075e+06 9.90985e+06 9.90885e+06 9.90781e+06
          9.90679e+06 9.90578e+06 9.90489e+06 9.9041e+06 9.90339e+06 9.90274e+06 9.90216e+06 9.90163e+06 9.90114e+06 9.90013e+06 9.89905e+06 9.89799e+06
          9.89695e+06 9.89593e+06 9.89491e+06 9.89391e+06 9.89292e+06 9.89194e+06 9.89096e+06 9.88999e+06 9.88903e+06 9.88807e+06 9.88713e+06 9.8862e+06
          9.88528e+06 9.87935e+06 9.88013e+06 9.88091e+06 9.8817e+06 9.88249e+06 9.8833e+06 9.88412e+06 9.88495e+06 9.88579e+06 9.88664e+06 9.8875e+06
          9.88838e+06 9.88928e+06 9.8902e+06 9.89114e+06 9.89211e+06 9.89311e+06 9.89414e+06 9.89521e+06 9.89631e+06 9.89746e+06 9.89866e+06 9.8999e+06
          9.90118e+06 9.90246e+06 9.90367e+06 9.90474e+06 9.90559e+06 9.9062e+06 9.90653e+06 9.9066e+06 9.90639e+06 9.90591e+06 9.90517e+06 9.90473e+06
          9.90418e+06 9.90352e+06 9.90278e+06 9.90196e+06 9.90109e+06 9.90021e+06 9.89936e+06 9.89856e+06 9.89783e+06 9.89716e+06 9.89654e+06 9.89597e+06
          9.89545e+06 9.89497e+06 9.89396e+06 9.89288e+06 9.89183e+06 9.89079e+06 9.88977e+06 9.88876e+06 9.88776e+06 9.88678e+06 9.8858e+06 9.88483e+06
          9.88386e+06 9.8829e+06 9.88196e+06 9.88102e+06 9.88008e+06 9.87916e+06 9.87322e+06 9.874e+06 9.87477e+06 9.87556e+06 9.87635e+06 9.87715e+06
          9.87796e+06 9.87877e+06 9.8796e+06 9.88044e+06 9.88129e+06 9.88216e+06 9.88304e+06 9.88394e+06 9.88485e+06 9.88579e+06 9.88675e+06 9.88774e+06
          9.88876e+06 9.8898e+06 9.89087e+06 9.89197e+06 9.89308e+06 9.8942e+06 9.89528e+06 9.8963e+06 9.89719e+06 9.89791e+06 9.89844e+06 9.89874e+06
          9.89882e+06 9.89868e+06 9.89833e+06 9.89779e+06 9.89744e+06 9.89698e+06 9.89643e+06 9.8958e+06 9.8951e+06 9.89437e+06 9.89362e+06 9.89288e+06
          9.89217e+06 9.8915e+06 9.89087e+06 9.89029e+06 9.88974e+06 9.88924e+06 9.88876e+06 9.88776e+06 9.88669e+06 9.88564e+06 9.88462e+06 9.8836e+06
          9.8826e+06 9.88161e+06 9.88062e+06 9.87965e+06 9.87868e+06 9.87773e+06 9.87677e+06 9.87583e+06 9.87489e+06 9.87396e+06 9.87303e+06 9.86709e+06
          9.86786e+06 9.86863e+06 9.86941e+06 9.8702e+06 9.87099e+06 9.87178e+06 9.87259e+06 9.8734e+06 9.87423e+06 9.87506e+06 9.87591e+06 9.87677e+06
          9.87765e+06 9.87854e+06 9.87944e+06 9.88037e+06 9.88131e+06 9.88228e+06 9.88326e+06 9.88425e+06 9.88525e+06 9.88626e+06 9.88724e+06 9.88818e+06
          9.88905e+06 9.88981e+06 9.89044e+06 9.8909e+06 9.89118e+06 9.89128e+06 9.89119e+06 9.89094e+06 9.89053e+06 9.89025e+06 9.88988e+06 9.88942e+06
          9.88888e+06 9.88829e+06 9.88766e+06 9.88702e+06 9.88637e+06 9.88574e+06 9.88512e+06 9.88454e+06 9.88399e+06 9.88347e+06 9.88298e+06 9.88252e+06
          9.88153e+06 9.88048e+06 9.87944e+06 9.87842e+06 9.87742e+06 9.87642e+06 9.87544e+06 9.87446e+06 9.8735e+06 9.87254e+06 9.87158e+06 9.87064e+06
          9.8697e+06 9.86876e+06 9.86783e+06 9.8669e+06 9.86096e+06 9.86172e+06 9.86249e+06 9.86326e+06 9.86404e+06 9.86482e+06 9.8656e+06 9.8664e+06
          9.8672e+06 9.86801e+06 9.86883e+06 9.86966e+06 9.87049e+06 9.87134e+06 9.87221e+06 9.87308e+06 9.87397e+06 9.87487e+06 9.87578e+06 9.8767e+06
          9.87762e+06 9.87854e+06 9.87944e+06 9.88032e+06 9.88115e+06 9.88191e+06 9.88258e+06 9.88312e+06 9.88354e+06 9.8838e+06 9.88391e+06 9.88388e+06
          9.8837e+06 9.8834e+06 9.88317e+06 9.88286e+06 9.88248e+06 9.88202e+06 9.88152e+06 9.88098e+06 9.88042e+06 9.87984e+06 9.87928e+06 9.87872e+06
          9.87818e+06 9.87766e+06 9.87717e+06 9.8767e+06 9.87625e+06 9.87528e+06 9.87425e+06 9.87322e+06 9.87222e+06 9.87122e+06 9.87024e+06 9.86926e+06
          9.8683e+06 9.86734e+06 9.86638e+06 9.86544e+06 9.86449e+06 9.86356e+06 9.86262e+06 9.8617e+06 9.86077e+06 9.85482e+06 9.85558e+06 9.85634e+06
          9.8571e+06 9.85787e+06 9.85864e+06 9.85942e+06 9.8602e+06 9.86098e+06 9.86178e+06 9.86258e+06 9.86339e+06 9.8642e+06 9.86503e+06 9.86586e+06
          9.8667e+06 9.86755e+06 9.86841e+06 9.86927e+06 9.87013e+06 9.87099e+06 9.87184e+06 9.87266e+06 9.87345e+06 9.87419e+06 9.87487e+06 9.87546e+06
          9.87595e+06 9.87632e+06 9.87658e+06 9.8767e+06 9.8767e+06 9.87658e+06 9.87636e+06 9.87618e+06 9.87593e+06 9.8756e+06 9.87522e+06 9.87478e+06
          9.87432e+06 9.87382e+06 9.87332e+06 9.8728e+06 9.8723e+06 9.8718e+06 9.87132e+06 9.87085e+06 9.87039e+06 9.86996e+06 9.86901e+06 9.868e+06
          9.86699e+06 9.866e+06 9.86502e+06 9.86404e+06 9.86308e+06 9.86212e+06 9.86117e+06 9.86022e+06 9.85928e+06 9.85835e+06 9.85741e+06 9.85648e+06
          9.85556e+06 9.85464e+06 9.84869e+06 9.84944e+06 9.85019e+06 9.85094e+06 9.8517e+06 9.85246e+06 9.85322e+06 9.85399e+06 9.85476e+06 9.85554e+06
          9.85632e+06 9.85711e+06 9.85791e+06 9.85871e+06 9.85951e+06 9.86032e+06 9.86113e+06 9.86195e+06 9.86276e+06 9.86357e+06 9.86437e+06 9.86515e+06
          9.86591e+06 9.86663e+06 9.8673e+06 9.86791e+06 9.86844e+06 9.86889e+06 9.86923e+06 9.86948e+06 9.86961e+06 9.86964e+06 9.86958e+06 9.86941e+06
          9.86927e+06 9.86906e+06 9.86879e+06 9.86846e+06 9.86808e+06 9.86768e+06 9.86724e+06 9.86679e+06 9.86633e+06 9.86586e+06 9.8654e+06 9.86495e+06
          9.86451e+06 9.86407e+06 9.86365e+06 9.86272e+06 9.86173e+06 9.86075e+06 9.85977e+06 9.8588e+06 9.85784e+06 9.85689e+06 9.85594e+06 9.855e+06
          9.85406e+06 9.85312e+06 9.85219e+06 9.85127e+06 9.85034e+06 9.84942e+06 9.8485e+06 9.84256e+06 9.8433e+06 9.84404e+06 9.84478e+06 9.84553e+06
          9.84628e+06 9.84702e+06 9.84778e+06 9.84854e+06 9.8493e+06 9.85006e+06 9.85083e+06 9.8516e+06 9.85238e+06 9.85315e+06 9.85393e+06 9.85471e+06
          9.85549e+06 9.85626e+06 9.85702e+06 9.85777e+06 9.85849e+06 9.85919e+06 9.85985e+06 9.86047e+06 9.86102e+06 9.86151e+06 9.86192e+06 9.86225e+06
          9.86249e+06 9.86263e+06 9.86269e+06 9.86266e+06 9.86254e+06 9.86243e+06 9.86226e+06 9.86203e+06 9.86174e+06 9.86142e+06 9.86106e+06 9.86068e+06
          9.86027e+06 9.85985e+06 9.85943e+06 9.859e+06 9.85858e+06 9.85816e+06 9.85774e+06 9.85733e+06 9.85643e+06 9.85546e+06 9.85449e+06 9.85353e+06
          9.85258e+06 9.85163e+06 9.85069e+06 9.84975e+06 9.84882e+06 9.84789e+06 9.84696e+06 9.84604e+06 9.84512e+06 9.8442e+06 9.84328e+06 9.84237e+06
          9.83642e+06 9.83716e+06 9.83789e+06 9.83862e+06 9.83935e+06 9.84009e+06 9.84082e+06 9.84156e+06 9.84231e+06 9.84305e+06 9.8438e+06 9.84454e+06
          9.8453e+06 9.84604e+06 9.8468e+06 9.84754e+06 9.84829e+06 9.84903e+06 9.84976e+06 9.85048e+06 9.85118e+06 9.85186e+06 9.85251e+06 9.85312e+06
          9.85369e+06 9.85421e+06 9.85466e+06 9.85505e+06 9.85536e+06 9.85559e+06 9.85574e+06 9.85582e+06 9.85582e+06 9.85575e+06 9.85566e+06 9.85551e+06
          9.85532e+06 9.85508e+06 9.85479e+06 9.85448e+06 9.85413e+06 9.85377e+06 9.85338e+06 9.853e+06 9.8526e+06 9.8522e+06 9.8518e+06 9.8514e+06
          9.851e+06 9.85012e+06 9.84918e+06 9.84823e+06 9.84729e+06 9.84635e+06 9.84542e+06 9.84449e+06 9.84356e+06 9.84264e+06 9.84172e+06 9.8408e+06
          9.83988e+06 9.83897e+06 9.83805e+06 9.83714e+06 9.83623e+06 9.83029e+06 9.83101e+06 9.83173e+06 9.83245e+06 9.83317e+06 9.8339e+06 9.83462e+06
          9.83535e+06 9.83607e+06 9.8368e+06 9.83753e+06 9.83826e+06 9.83899e+06 9.83971e+06 9.84044e+06 9.84116e+06 9.84187e+06 9.84258e+06 9.84328e+06
          9.84396e+06 9.84462e+06 9.84526e+06 9.84587e+06 9.84644e+06 9.84697e+06 9.84745e+06 9.84788e+06 9.84824e+06 9.84854e+06 9.84877e+06 9.84893e+06
          9.84902e+06 9.84905e+06 9.84901e+06 9.84894e+06 9.84882e+06 9.84866e+06 9.84844e+06 9.8482e+06 9.84792e+06 9.84761e+06 9.84728e+06 9.84693e+06
          9.84657e+06 9.8462e+06 9.84582e+06 9.84544e+06 9.84506e+06 9.84467e+06 9.84382e+06 9.84289e+06 9.84196e+06 9.84104e+06 9.84012e+06 9.8392e+06
          9.83828e+06 9.83736e+06 9.83645e+06 9.83554e+06 9.83463e+06 9.83372e+06 9.83281e+06 9.83191e+06 9.831e+06 9.8301e+06 9.82416e+06 9.82487e+06
          9.82558e+06 9.82628e+06 9.827e+06 9.82771e+06 9.82842e+06 9.82913e+06 9.82984e+06 9.83055e+06 9.83126e+06 9.83197e+06 9.83268e+06 9.83338e+06
          9.83408e+06 9.83478e+06 9.83547e+06 9.83614e+06 9.83681e+06 9.83746e+06 9.83808e+06 9.83869e+06 9.83926e+06 9.8398e+06 9.8403e+06 9.84075e+06
          9.84116e+06 9.8415e+06 9.8418e+06 9.84202e+06 9.84219e+06 9.8423e+06 9.84234e+06 9.84233e+06 9.84228e+06 9.84218e+06 9.84204e+06 9.84185e+06
          9.84163e+06 9.84138e+06 9.8411e+06 9.8408e+06 9.84048e+06 9.84015e+06 9.8398e+06 9.83944e+06 9.83908e+06 9.83871e+06 9.83834e+06 9.83751e+06
          9.8366e+06 9.8357e+06 9.83479e+06 9.83388e+06 9.83298e+06 9.83207e+06 9.83117e+06 9.83026e+06 9.82936e+06 9.82846e+06 9.82756e+06 9.82666e+06
          9.82576e+06 9.82486e+06 9.82396e+06 9.81802e+06 9.81872e+06 9.81942e+06 9.82012e+06 9.82082e+06 9.82151e+06 9.82221e+06 9.82291e+06 9.82361e+06
          9.8243e+06 9.825e+06 9.82569e+06 9.82637e+06 9.82706e+06 9.82774e+06 9.82841e+06 9.82907e+06 9.82972e+06 9.83036e+06 9.83097e+06 9.83157e+06
          9.83214e+06 9.83269e+06 9.8332e+06 9.83367e+06 9.8341e+06 9.83449e+06 9.83483e+06 9.83511e+06 9.83534e+06 9.83551e+06 9.83563e+06 9.83569e+06
          9.8357e+06 9.83566e+06 9.83558e+06 9.83546e+06 9.8353e+06 9.8351e+06 9.83488e+06 9.83462e+06 9.83435e+06 9.83405e+06 9.83374e+06 9.83342e+06
          9.83308e+06 9.83273e+06 9.83238e+06 9.83201e+06 9.8312e+06 9.83032e+06 9.82943e+06 9.82854e+06 9.82765e+06 9.82676e+06 9.82586e+06 9.82497e+06
          9.82408e+06 9.82318e+06 9.82229e+06 9.8214e+06 9.8205e+06 9.81961e+06 9.81872e+06 9.81783e+06 9.81189e+06 9.81258e+06 9.81326e+06 9.81395e+06
          9.81464e+06 9.81532e+06 9.81601e+06 9.81669e+06 9.81737e+06 9.81805e+06 9.81873e+06 9.8194e+06 9.82007e+06 9.82074e+06 9.8214e+06 9.82204e+06
          9.82268e+06 9.82331e+06 9.82392e+06 9.82451e+06 9.82508e+06 9.82563e+06 9.82615e+06 9.82664e+06 9.82709e+06 9.8275e+06 9.82787e+06 9.8282e+06
          9.82848e+06 9.82871e+06 9.82889e+06 9.82902e+06 9.8291e+06 9.82911e+06 9.82909e+06 9.82902e+06 9.82892e+06 9.82878e+06 9.8286e+06 9.8284e+06
          9.82817e+06 9.82792e+06 9.82764e+06 9.82735e+06 9.82704e+06 9.82672e+06 9.82639e+06 9.82604e+06 9.82569e+06 9.8249e+06 9.82403e+06 9.82316e+06
          9.82229e+06 9.82142e+06 9.82054e+06 9.81965e+06 9.81877e+06 9.81789e+06 9.817e+06 9.81612e+06 9.81523e+06 9.81435e+06 9.81346e+06 9.81258e+06
          9.81169e+06 9.80576e+06 9.80643e+06 9.80711e+06 9.80778e+06 9.80846e+06 9.80913e+06 9.8098e+06 9.81047e+06 9.81114e+06 9.81181e+06 9.81247e+06
          9.81313e+06 9.81378e+06 9.81442e+06 9.81506e+06 9.81569e+06 9.81631e+06 9.81691e+06 9.8175e+06 9.81807e+06 9.81862e+06 9.81914e+06 9.81964e+06
          9.82011e+06 9.82054e+06 9.82094e+06 9.8213e+06 9.82162e+06 9.82189e+06 9.82212e+06 9.82231e+06 9.82245e+06 9.82254e+06 9.82257e+06 9.82255e+06
          9.8225e+06 9.82241e+06 9.82229e+06 9.82213e+06 9.82195e+06 9.82174e+06 9.8215e+06 9.82124e+06 9.82097e+06 9.82068e+06 9.82037e+06 9.82005e+06
          9.81972e+06 9.81938e+06 9.8186e+06 9.81776e+06 9.8169e+06 9.81605e+06 9.81518e+06 9.81432e+06 9.81345e+06 9.81258e+06 9.8117e+06 9.81082e+06
          9.80995e+06 9.80907e+06 9.80819e+06 9.80732e+06 9.80644e+06 9.80556e+06 9.79962e+06 9.80029e+06 9.80095e+06 9.80162e+06 9.80228e+06 9.80294e+06
          9.8036e+06 9.80426e+06 9.80491e+06 9.80557e+06 9.80621e+06 9.80686e+06 9.80749e+06 9.80812e+06 9.80874e+06 9.80935e+06 9.80995e+06 9.81053e+06
          9.8111e+06 9.81165e+06 9.81218e+06 9.81268e+06 9.81316e+06 9.81362e+06 9.81404e+06 9.81442e+06 9.81477e+06 9.81508e+06 9.81536e+06 9.81559e+06
          9.81578e+06 9.81593e+06 9.81604e+06 9.81606e+06 9.81606e+06 9.81602e+06 9.81594e+06 9.81583e+06 9.81569e+06 9.81552e+06 9.81533e+06 9.81511e+06
          9.81487e+06 9.81461e+06 9.81433e+06 9.81404e+06 9.81373e+06 9.81341e+06 9.81307e+06 9.81231e+06 9.81149e+06 9.81065e+06 9.8098e+06 9.80896e+06
          9.8081e+06 9.80724e+06 9.80638e+06 9.80552e+06 9.80465e+06 9.80378e+06 9.80291e+06 9.80204e+06 9.80117e+06 9.80029e+06 9.79942e+06 9.79349e+06
          9.79414e+06 9.7948e+06 9.79545e+06 9.7961e+06 9.79675e+06 9.7974e+06 9.79805e+06 9.79869e+06 9.79933e+06 9.79996e+06 9.80059e+06 9.80121e+06
          9.80182e+06 9.80243e+06 9.80302e+06 9.8036e+06 9.80416e+06 9.80472e+06 9.80525e+06 9.80576e+06 9.80625e+06 9.80672e+06 9.80715e+06 9.80756e+06
          9.80794e+06 9.80828e+06 9.80859e+06 9.80886e+06 9.80909e+06 9.80929e+06 9.80944e+06 9.80956e+06 9.8096e+06 9.8096e+06 9.80957e+06 9.8095e+06
          9.8094e+06 9.80928e+06 9.80912e+06 9.80894e+06 9.80874e+06 9.80851e+06 9.80827e+06 9.808e+06 9.80772e+06 9.80742e+06 9.80711e+06 9.80678e+06
          9.80603e+06 9.80522e+06 9.8044e+06 9.80357e+06 9.80273e+06 9.80189e+06 9.80104e+06 9.80019e+06 9.79933e+06 9.79847e+06 9.79761e+06 9.79675e+06
          9.79588e+06 9.79502e+06 9.79415e+06 9.79329e+06 9.78735e+06 9.788e+06 9.78864e+06 9.78929e+06 9.78993e+06 9.79057e+06 9.7912e+06 9.79184e+06
          9.79247e+06 9.7931e+06 9.79372e+06 9.79433e+06 9.79494e+06 9.79553e+06 9.79612e+06 9.7967e+06 9.79726e+06 9.79782e+06 9.79835e+06 9.79887e+06
          9.79936e+06 9.79984e+06 9.80029e+06 9.80072e+06 9.80112e+06 9.80148e+06 9.80182e+06 9.80213e+06 9.8024e+06 9.80263e+06 9.80283e+06 9.803e+06
          9.80313e+06 9.80316e+06 9.80317e+06 9.80315e+06 9.80309e+06 9.80301e+06 9.80289e+06 9.80275e+06 9.80258e+06 9.80239e+06 9.80218e+06 9.80194e+06
          9.80169e+06 9.80141e+06 9.80112e+06 9.80082e+06 9.8005e+06 9.79977e+06 9.79897e+06 9.79816e+06 9.79734e+06 9.79651e+06 9.79568e+06 9.79484e+06
          9.794e+06 9.79315e+06 9.7923e+06 9.79144e+06 9.79059e+06 9.78973e+06 9.78887e+06 9.78801e+06 9.78715e+06 9.78122e+06 9.78186e+06 9.78249e+06
          9.78312e+06 9.78376e+06 9.78438e+06 9.78501e+06 9.78563e+06 9.78625e+06 9.78687e+06 9.78748e+06 9.78808e+06 9.78867e+06 9.78926e+06 9.78983e+06
          9.79039e+06 9.79095e+06 9.79148e+06 9.792e+06 9.79251e+06 9.79299e+06 9.79346e+06 9.7939e+06 9.79431e+06 9.7947e+06 9.79506e+06 9.7954e+06
          9.7957e+06 9.79597e+06 9.79621e+06 9.79641e+06 9.79659e+06 9.79672e+06 9.79677e+06 9.79678e+06 9.79676e+06 9.79672e+06 9.79664e+06 9.79654e+06
          9.7964e+06 9.79625e+06 9.79607e+06 9.79586e+06 9.79564e+06 9.79539e+06 9.79513e+06 9.79485e+06 9.79455e+06 9.79423e+06 9.79351e+06 9.79273e+06
          9.79193e+06 9.79112e+06 9.7903e+06 9.78948e+06 9.78865e+06 9.78781e+06 9.78697e+06 9.78613e+06 9.78528e+06 9.78443e+06 9.78358e+06 9.78273e+06
          9.78187e+06 9.78102e+06 9.77509e+06 9.77571e+06 9.77634e+06 9.77696e+06 9.77758e+06 9.7782e+06 9.77882e+06 9.77943e+06 9.78004e+06 9.78064e+06
          9.78124e+06 9.78183e+06 9.78241e+06 9.78299e+06 9.78355e+06 9.7841e+06 9.78464e+06 9.78516e+06 9.78567e+06 9.78617e+06 9.78664e+06 9.78709e+06
          9.78752e+06 9.78793e+06 9.78832e+06 9.78867e+06 9.789e+06 9.7893e+06 9.78958e+06 9.78982e+06 9.79003e+06 9.79021e+06 9.79035e+06 9.7904e+06
          9.79042e+06 9.79041e+06 9.79037e+06 9.7903e+06 9.79021e+06 9.79008e+06 9.78994e+06 9.78976e+06 9.78957e+06 9.78935e+06 9.78911e+06 9.78886e+06
          9.78858e+06 9.78829e+06 9.78798e+06 9.78727e+06 9.7865e+06 9.78571e+06 9.78491e+06 9.7841e+06 9.78328e+06 9.78246e+06 9.78163e+06 9.7808e+06
          9.77996e+06 9.77912e+06 9.77828e+06 9.77743e+06 9.77658e+06 9.77573e+06 9.77488e+06 9.76895e+06 9.76957e+06 9.77019e+06 9.7708e+06 9.77142e+06
          9.77203e+06 9.77263e+06 9.77324e+06 9.77384e+06 9.77443e+06 9.77502e+06 9.7756e+06 9.77617e+06 9.77673e+06 9.77728e+06 9.77782e+06 9.77835e+06
          9.77886e+06 9.77936e+06 9.77984e+06 9.78031e+06 9.78075e+06 9.78118e+06 9.78158e+06 9.78196e+06 9.78231e+06 9.78264e+06 9.78294e+06 9.78321e+06
          9.78346e+06 9.78367e+06 9.78386e+06 9.78401e+06 9.78406e+06 9.78409e+06 9.78408e+06 9.78405e+06 9.78399e+06 9.7839e+06 9.78379e+06 9.78365e+06
          9.78348e+06 9.7833e+06 9.78309e+06 9.78286e+06 9.78261e+06 9.78234e+06 9.78205e+06 9.78174e+06 9.78104e+06 9.78028e+06 9.7795e+06 9.7787e+06
          9.7779e+06 9.7771e+06 9.77628e+06 9.77546e+06 9.77463e+06 9.7738e+06 9.77296e+06 9.77212e+06 9.77128e+06 9.77044e+06 9.76959e+06 9.76875e+06
          9.76282e+06 9.76343e+06 9.76404e+06 9.76465e+06 9.76525e+06 9.76585e+06 9.76645e+06 9.76705e+06 9.76764e+06 9.76822e+06 9.7688e+06 9.76937e+06
          9.76993e+06 9.77048e+06 9.77102e+06 9.77155e+06 9.77207e+06 9.77258e+06 9.77306e+06 9.77354e+06 9.77399e+06 9.77443e+06 9.77485e+06 9.77525e+06
          9.77562e+06 9.77597e+06 9.7763e+06 9.7766e+06 9.77688e+06 9.77712e+06 9.77735e+06 9.77754e+06 9.7777e+06 9.77776e+06 9.77779e+06 9.77779e+06
          9.77776e+06 9.77771e+06 9.77762e+06 9.77752e+06 9.77738e+06 9.77723e+06 9.77705e+06 9.77684e+06 9.77662e+06 9.77637e+06 9.77611e+06 9.77583e+06
          9.77552e+06 9.77483e+06 9.77407e+06 9.7733e+06 9.77251e+06 9.77172e+06 9.77091e+06 9.7701e+06 9.76928e+06 9.76846e+06 9.76763e+06 9.7668e+06
          9.76597e+06 9.76513e+06 9.76429e+06 9.76346e+06 9.76261e+06 9.75669e+06 9.75729e+06 9.75789e+06 9.75849e+06 9.75909e+06 9.75968e+06 9.76027e+06
          9.76086e+06 9.76144e+06 9.76202e+06 9.76258e+06 9.76315e+06 9.7637e+06 9.76424e+06 9.76478e+06 9.7653e+06 9.76581e+06 9.7663e+06 9.76678e+06
          9.76725e+06 9.7677e+06 9.76813e+06 9.76854e+06 9.76894e+06 9.76931e+06 9.76966e+06 9.76998e+06 9.77029e+06 9.77057e+06 9.77082e+06 9.77105e+06
          9.77125e+06 9.77142e+06 9.77148e+06 9.77151e+06 9.77152e+06 9.7715e+06 9.77145e+06 9.77137e+06 9.77127e+06 9.77115e+06 9.771e+06 9.77082e+06
          9.77062e+06 9.7704e+06 9.77016e+06 9.7699e+06 9.76962e+06 9.76932e+06 9.76863e+06 9.76788e+06 9.76711e+06 9.76633e+06 9.76554e+06 9.76474e+06
          9.76393e+06 9.76312e+06 9.7623e+06 9.76148e+06 9.76065e+06 9.75982e+06 9.75899e+06 9.75815e+06 9.75732e+06 9.75648e+06 9.75056e+06 9.75115e+06
          9.75174e+06 9.75234e+06 9.75293e+06 9.75352e+06 9.7541e+06 9.75468e+06 9.75525e+06 9.75582e+06 9.75638e+06 9.75693e+06 9.75748e+06 9.75801e+06
          9.75854e+06 9.75905e+06 9.75956e+06 9.76004e+06 9.76052e+06 9.76098e+06 9.76142e+06 9.76185e+06 9.76226e+06 9.76265e+06 9.76302e+06 9.76337e+06
          9.7637e+06 9.764e+06 9.76428e+06 9.76454e+06 9.76478e+06 9.76499e+06 9.76516e+06 9.76523e+06 9.76526e+06 9.76528e+06 9.76526e+06 9.76522e+06
          9.76515e+06 9.76505e+06 9.76493e+06 9.76479e+06 9.76462e+06 9.76442e+06 9.7642e+06 9.76397e+06 9.76371e+06 9.76343e+06 9.76314e+06 9.76245e+06
          9.7617e+06 9.76093e+06 9.76015e+06 9.75937e+06 9.75857e+06 9.75777e+06 9.75696e+06 9.75614e+06 9.75532e+06 9.7545e+06 9.75367e+06 9.75284e+06
          9.75201e+06 9.75118e+06 9.75035e+06 9.74442e+06 9.74501e+06 9.7456e+06 9.74619e+06 9.74677e+06 9.74735e+06 9.74793e+06 9.7485e+06 9.74907e+06
          9.74963e+06 9.75018e+06 9.75073e+06 9.75127e+06 9.7518e+06 9.75231e+06 9.75282e+06 9.75332e+06 9.7538e+06 9.75427e+06 9.75472e+06 9.75516e+06
          9.75558e+06 9.75599e+06 9.75638e+06 9.75675e+06 9.7571e+06 9.75743e+06 9.75774e+06 9.75802e+06 9.75829e+06 9.75853e+06 9.75875e+06 9.75894e+06
          9.759e+06 9.75905e+06 9.75906e+06 9.75905e+06 9.75902e+06 9.75895e+06 9.75886e+06 9.75874e+06 9.7586e+06 9.75844e+06 9.75824e+06 9.75803e+06
          9.7578e+06 9.75754e+06 9.75726e+06 9.75697e+06 9.75628e+06 9.75553e+06 9.75477e+06 9.75399e+06 9.7532e+06 9.75241e+06 9.75161e+06 9.7508e+06
          9.74999e+06 9.74917e+06 9.74835e+06 9.74753e+06 9.7467e+06 9.74588e+06 9.74504e+06 9.74421e+06 9.73829e+06 9.73887e+06 9.73946e+06 9.74004e+06
          9.74062e+06 9.74119e+06 9.74176e+06 9.74233e+06 9.74289e+06 9.74345e+06 9.744e+06 9.74454e+06 9.74507e+06 9.74559e+06 9.7461e+06 9.7466e+06
          9.74709e+06 9.74757e+06 9.74803e+06 9.74848e+06 9.74892e+06 9.74934e+06 9.74974e+06 9.75013e+06 9.7505e+06 9.75085e+06 9.75118e+06 9.75149e+06
          9.75179e+06 9.75206e+06 9.75231e+06 9.75254e+06 9.75273e+06 9.7528e+06 9.75285e+06 9.75288e+06 9.75287e+06 9.75284e+06 9.75278e+06 9.75269e+06
          9.75258e+06 9.75244e+06 9.75228e+06 9.75209e+06 9.75188e+06 9.75164e+06 9.75139e+06 9.75111e+06 9.75082e+06 9.75013e+06 9.74938e+06 9.74861e+06
          9.74784e+06 9.74705e+06 9.74626e+06 9.74546e+06 9.74465e+06 9.74384e+06 9.74303e+06 9.74221e+06 9.74139e+06 9.74056e+06 9.73974e+06 9.73891e+06
          9.73808e+06 9.73216e+06 9.73274e+06 9.73332e+06 9.73389e+06 9.73447e+06 9.73504e+06 9.7356e+06 9.73617e+06 9.73672e+06 9.73727e+06 9.73781e+06
          9.73835e+06 9.73887e+06 9.73939e+06 9.7399e+06 9.74039e+06 9.74088e+06 9.74135e+06 9.74181e+06 9.74226e+06 9.74269e+06 9.74311e+06 9.74351e+06
          9.74389e+06 9.74426e+06 9.74462e+06 9.74495e+06 9.74527e+06 9.74557e+06 9.74585e+06 9.74611e+06 9.74635e+06 9.74656e+06 9.74663e+06 9.74669e+06
          9.74672e+06 9.74672e+06 9.74669e+06 9.74663e+06 9.74655e+06 9.74644e+06 9.74631e+06 9.74614e+06 9.74596e+06 9.74575e+06 9.74551e+06 9.74526e+06
          9.74498e+06 9.74468e+06 9.74399e+06 9.74324e+06 9.74247e+06 9.74169e+06 9.74091e+06 9.74011e+06 9.73931e+06 9.73851e+06 9.7377e+06 9.73688e+06
          9.73607e+06 9.73525e+06 9.73443e+06 9.7336e+06 9.73278e+06 9.73195e+06 9.72602e+06 9.7266e+06 9.72718e+06 9.72775e+06 9.72832e+06 9.72889e+06
          9.72945e+06 9.73001e+06 9.73056e+06 9.7311e+06 9.73164e+06 9.73217e+06 9.73269e+06 9.7332e+06 9.7337e+06 9.7342e+06 9.73468e+06 9.73515e+06
          9.7356e+06 9.73605e+06 9.73648e+06 9.73689e+06 9.73729e+06 9.73768e+06 9.73805e+06 9.7384e+06 9.73874e+06 9.73906e+06 9.73937e+06 9.73966e+06
          9.73993e+06 9.74018e+06 9.7404e+06 9.74049e+06 9.74055e+06 9.74058e+06 9.74059e+06 9.74057e+06 9.74052e+06 9.74044e+06 9.74033e+06 9.7402e+06
          9.74004e+06 9.73985e+06 9.73964e+06 9.73941e+06 9.73915e+06 9.73887e+06 9.73857e+06 9.73787e+06 9.73711e+06 9.73634e+06 9.73556e+06 9.73477e+06
          9.73397e+06 9.73317e+06 9.73237e+06 9.73156e+06 9.73075e+06 9.72993e+06 9.72911e+06 9.72829e+06 9.72747e+06 9.72664e+06 9.72582e+06 9.71989e+06
          9.72047e+06 9.72104e+06 9.72161e+06 9.72218e+06 9.72274e+06 9.7233e+06 9.72385e+06 9.7244e+06 9.72494e+06 9.72547e+06 9.726e+06 9.72652e+06
          9.72702e+06 9.72752e+06 9.72801e+06 9.72849e+06 9.72895e+06 9.72941e+06 9.72985e+06 9.73028e+06 9.73069e+06 9.73109e+06 9.73148e+06 9.73185e+06
          9.7322e+06 9.73255e+06 9.73288e+06 9.73319e+06 9.73349e+06 9.73377e+06 9.73404e+06 9.73428e+06 9.73437e+06 9.73444e+06 9.73448e+06 9.73449e+06
          9.73447e+06 9.73442e+06 9.73435e+06 9.73425e+06 9.73412e+06 9.73396e+06 9.73377e+06 9.73356e+06 9.73332e+06 9.73306e+06 9.73278e+06 9.73247e+06
          9.73176e+06 9.731e+06 9.73021e+06 9.72943e+06 9.72863e+06 9.72784e+06 9.72704e+06 9.72623e+06 9.72542e+06 9.72461e+06 9.7238e+06 9.72298e+06
          9.72216e+06 9.72134e+06 9.72051e+06 9.71969e+06 9.71376e+06 9.71434e+06 9.71491e+06 9.71547e+06 9.71604e+06 9.7166e+06 9.71715e+06 9.7177e+06
          9.71825e+06 9.71878e+06 9.71932e+06 9.71984e+06 9.72035e+06 9.72086e+06 9.72135e+06 9.72184e+06 9.72231e+06 9.72277e+06 9.72322e+06 9.72366e+06
          9.72409e+06 9.7245e+06 9.7249e+06 9.72529e+06 9.72566e+06 9.72602e+06 9.72637e+06 9.7267e+06 9.72702e+06 9.72733e+06 9.72763e+06 9.72792e+06
          9.72818e+06 9.72828e+06 9.72835e+06 9.7284e+06 9.72842e+06 9.72841e+06 9.72836e+06 9.72829e+06 9.72819e+06 9.72806e+06 9.7279e+06 9.72772e+06
          9.7275e+06 9.72726e+06 9.727e+06 9.7267e+06 9.72639e+06 9.72567e+06 9.72489e+06 9.7241e+06 9.7233e+06 9.72251e+06 9.72171e+06 9.7209e+06
          9.7201e+06 9.71929e+06 9.71848e+06 9.71766e+06 9.71685e+06 9.71603e+06 9.7152e+06 9.71438e+06 9.71356e+06 9.70763e+06 9.7082e+06 9.70877e+06
          9.70934e+06 9.7099e+06 9.71046e+06 9.71102e+06 9.71156e+06 9.7121e+06 9.71264e+06 9.71316e+06 9.71368e+06 9.7142e+06 9.7147e+06 9.71519e+06
          9.71567e+06 9.71614e+06 9.7166e+06 9.71705e+06 9.71749e+06 9.71792e+06 9.71833e+06 9.71873e+06 9.71912e+06 9.71949e+06 9.71985e+06 9.7202e+06
          9.72054e+06 9.72087e+06 9.72119e+06 9.7215e+06 9.72181e+06 9.72209e+06 9.72221e+06 9.7223e+06 9.72235e+06 9.72238e+06 9.72237e+06 9.72233e+06
          9.72226e+06 9.72216e+06 9.72204e+06 9.72188e+06 9.72169e+06 9.72147e+06 9.72123e+06 9.72095e+06 9.72065e+06 9.72033e+06 9.71959e+06 9.71879e+06
          9.71798e+06 9.71718e+06 9.71638e+06 9.71558e+06 9.71477e+06 9.71397e+06 9.71316e+06 9.71235e+06 9.71153e+06 9.71072e+06 9.7099e+06 9.70908e+06
          9.70825e+06 9.70742e+06 9.7015e+06 9.70208e+06 9.70265e+06 9.70321e+06 9.70377e+06 9.70433e+06 9.70488e+06 9.70543e+06 9.70596e+06 9.7065e+06
          9.70702e+06 9.70754e+06 9.70805e+06 9.70855e+06 9.70904e+06 9.70952e+06 9.70999e+06 9.71045e+06 9.7109e+06 9.71133e+06 9.71176e+06 9.71217e+06
          9.71257e+06 9.71295e+06 9.71333e+06 9.71369e+06 9.71404e+06 9.71439e+06 9.71472e+06 9.71505e+06 9.71538e+06 9.71571e+06 9.71603e+06 9.71617e+06
          9.71627e+06 9.71634e+06 9.71637e+06 9.71637e+06 9.71633e+06 9.71626e+06 9.71617e+06 9.71604e+06 9.71588e+06 9.71569e+06 9.71547e+06 9.71522e+06
          9.71494e+06 9.71462e+06 9.71428e+06 9.71351e+06 9.71268e+06 9.71187e+06 9.71106e+06 9.71026e+06 9.70945e+06 9.70864e+06 9.70784e+06 9.70703e+06
          9.70622e+06 9.70541e+06 9.70459e+06 9.70377e+06 9.70295e+06 9.70212e+06 9.7013e+06 9.69537e+06 9.69595e+06 9.69652e+06 9.69709e+06 9.69765e+06
          9.6982e+06 9.69875e+06 9.6993e+06 9.69983e+06 9.70036e+06 9.70089e+06 9.7014e+06 9.70191e+06 9.70241e+06 9.7029e+06 9.70338e+06 9.70384e+06
          9.7043e+06 9.70475e+06 9.70518e+06 9.70561e+06 9.70602e+06 9.70642e+06 9.7068e+06 9.70718e+06 9.70754e+06 9.7079e+06 9.70824e+06 9.70858e+06
          9.70892e+06 9.70926e+06 9.7096e+06 9.70997e+06 9.71016e+06 9.71029e+06 9.71036e+06 9.7104e+06 9.7104e+06 9.71036e+06 9.7103e+06 9.7102e+06
          9.71007e+06 9.70992e+06 9.70973e+06 9.70951e+06 9.70925e+06 9.70896e+06 9.70863e+06 9.70823e+06 9.70741e+06 9.70657e+06 9.70575e+06 9.70494e+06