<?xml version="1.0"?>
<VTKFile type="UnstructuredGrid" version="0.1" byte_order="LittleEndian">
  <UnstructuredGrid>
    <Piece NumberOfCells="4096" NumberOfPoints="4225">
      <PointData Scalars="pressure_liquid">
        <DataArray type="Float32" Name="pressure_liquid" NumberOfComponents="1" format="ascii">
          9.90933e+06 9.91091e+06 9.90424e+06 9.90491e+06 9.91186e+06 9.90578e+06 9.91273e+06 9.90663e+06 9.91357e+06 9.90746e+06 9.9144e+06 9.90829e+06
          9.91524e+06 9.90912e+06 9.91608e+06 9.90996e+06 9.91693e+06 9.91081e+06 9.9178e+06 9.91168e+06 9.91868e+06 9.91256e+06 9.91958e+06 9.91346e+06
          9.92051e+06 9.91439e+06 9.92147e+06 9.91534e+06 9.92245e+06 9.91632e+06 9.92348e+06 9.91734e+06 9.92455e+06 9.91841e+06 9.92567e+06 9.91953e+06
          9.92686e+06 9.92071e+06 9.92812e+06 9.92196e+06 9.92947e+06 9.92331e+06 9.93094e+06 9.92476e+06 9.93255e+06 9.92636e+06 9.93443e+06 9.92807e+06
          9.93713e+06 9.93096e+06 9.93919e+06 9.93339e+06 9.94106e+06 9.93538e+06 9.9425e+06 9.93682e+06 9.94345e+06 9.93776e+06 9.94392e+06 9.93822e+06
          9.94392e+06 9.93823e+06 9.94346e+06 9.93777e+06 9.94254e+06 9.93681e+06 9.94134e+06 9.93522e+06 9.9402e+06 9.93425e+06 9.93915e+06 9.93325e+06
          9.93804e+06 9.93217e+06 9.93679e+06 9.93095e+06 9.93534e+06 9.92953e+06 9.93367e+06 9.92785e+06 9.93175e+06 9.92602e+06 9.93026e+06 9.92432e+06
          9.92934e+06 9.92343e+06 9.92852e+06 9.9226e+06 9.92778e+06 9.92187e+06 9.92713e+06 9.92121e+06 9.92656e+06 9.92064e+06 9.92608e+06 9.92015e+06
          9.92576e+06 9.91971e+06 9.92489e+06 9.91879e+06 9.9239e+06 9.91779e+06 9.9229e+06 9.91679e+06 9.92191e+06 9.9158e+06 9.92092e+06 9.91481e+06
          9.91994e+06 9.91383e+06 9.91897e+06 9.91286e+06 9.918e+06 9.91189e+06 9.91704e+06 9.91093e+06 9.91609e+06 9.90998e+06 9.91513e+06 9.90902e+06
          9.91418e+06 9.90807e+06 9.91321e+06 9.90711e+06 9.91222e+06 9.90614e+06 9.91113e+06 9.90514e+06 9.9094e+06 9.90434e+06 9.89826e+06 9.89895e+06
          9.89973e+06 9.90054e+06 9.90135e+06 9.90217e+06 9.903e+06 9.90384e+06 9.90468e+06 9.90554e+06 9.90642e+06 9.90732e+06 9.90824e+06 9.90918e+06
          9.91016e+06 9.91117e+06 9.91222e+06 9.91332e+06 9.91448e+06 9.91572e+06 9.91703e+06 9.91845e+06 9.92e+06 9.92175e+06 9.92395e+06 9.92695e+06
          9.92898e+06 9.93038e+06 9.93129e+06 9.93173e+06 9.93174e+06 9.9313e+06 9.93036e+06 9.92868e+06 9.9278e+06 9.92688e+06 9.92588e+06 9.92474e+06
          9.92341e+06 9.92179e+06 9.91979e+06 9.9184e+06 9.91744e+06 9.9166e+06 9.91587e+06 9.91521e+06 9.91464e+06 9.91413e+06 9.91367e+06 9.91271e+06
          9.91168e+06 9.91068e+06 9.90968e+06 9.90869e+06 9.90771e+06 9.90673e+06 9.90577e+06 9.90481e+06 9.90386e+06 9.90291e+06 9.90197e+06 9.90103e+06
          9.90009e+06 9.89918e+06 9.89836e+06 9.89217e+06 9.8929e+06 9.89366e+06 9.89444e+06 9.89524e+06 9.89605e+06 9.89687e+06 9.8977e+06 9.89854e+06
          9.89939e+06 9.90026e+06 9.90115e+06 9.90206e+06 9.90299e+06 9.90396e+06 9.90495e+06 9.90598e+06 9.90706e+06 9.90819e+06 9.90938e+06 9.91065e+06
          9.912e+06 9.91347e+06 9.9151e+06 9.91687e+06 9.91915e+06 9.92102e+06 9.92231e+06 9.92314e+06 9.92356e+06 9.92358e+06 9.92319e+06 9.92238e+06
          9.92114e+06 9.92036e+06 9.91954e+06 9.91865e+06 9.91764e+06 9.91645e+06 9.915e+06 9.91334e+06 9.91228e+06 9.91133e+06 9.91051e+06 9.90979e+06
          9.90914e+06 9.90857e+06 9.90805e+06 9.90758e+06 9.9066e+06 9.90556e+06 9.90455e+06 9.90354e+06 9.90255e+06 9.90158e+06 9.90061e+06 9.89964e+06
          9.89869e+06 9.89774e+06 9.8968e+06 9.89587e+06 9.89494e+06 9.89402e+06 9.89313e+06 9.89228e+06 9.88606e+06 9.8868e+06 9.88756e+06 9.88833e+06
          9.88912e+06 9.88992e+06 9.89073e+06 9.89155e+06 9.89238e+06 9.89323e+06 9.89409e+06 9.89496e+06 9.89586e+06 9.89678e+06 9.89772e+06 9.8987e+06
          9.8997e+06 9.90075e+06 9.90184e+06 9.90298e+06 9.90418e+06 9.90545e+06 9.9068e+06 9.90823e+06 9.90975e+06 9.91122e+06 9.91252e+06 9.91355e+06
          9.91424e+06 9.9146e+06 9.91464e+06 9.91434e+06 9.91368e+06 9.91266e+06 9.91209e+06 9.91143e+06 9.91068e+06 9.90986e+06 9.90893e+06 9.90794e+06
          9.90694e+06 9.90596e+06 9.9051e+06 9.90432e+06 9.90363e+06 9.903e+06 9.90244e+06 9.90192e+06 9.90146e+06 9.90046e+06 9.89942e+06 9.8984e+06
          9.8974e+06 9.89641e+06 9.89544e+06 9.89447e+06 9.89351e+06 9.89256e+06 9.89162e+06 9.89068e+06 9.88976e+06 9.88884e+06 9.88793e+06 9.88704e+06
          9.88617e+06 9.87994e+06 9.88068e+06 9.88144e+06 9.88221e+06 9.88299e+06 9.88378e+06 9.88458e+06 9.88539e+06 9.88621e+06 9.88704e+06 9.88789e+06
          9.88876e+06 9.88964e+06 9.89054e+06 9.89146e+06 9.89241e+06 9.89338e+06 9.89439e+06 9.89544e+06 9.89652e+06 9.89765e+06 9.89882e+06 9.90004e+06
          9.90129e+06 9.90254e+06 9.90373e+06 9.90479e+06 9.90564e+06 9.90623e+06 9.90656e+06 9.90661e+06 9.90638e+06 9.90588e+06 9.90514e+06 9.9047e+06
          9.90417e+06 9.90354e+06 9.90283e+06 9.90205e+06 9.90122e+06 9.90037e+06 9.89955e+06 9.89877e+06 9.89806e+06 9.8974e+06 9.8968e+06 9.89626e+06
          9.89575e+06 9.89528e+06 9.8943e+06 9.89326e+06 9.89224e+06 9.89124e+06 9.89026e+06 9.88928e+06 9.88832e+06 9.88737e+06 9.88643e+06 9.88549e+06
          9.88456e+06 9.88364e+06 9.88273e+06 9.88182e+06 9.88093e+06 9.88005e+06 9.87381e+06 9.87456e+06 9.87531e+06 9.87608e+06 9.87685e+06 9.87763e+06
          9.87842e+06 9.87922e+06 9.88003e+06 9.88085e+06 9.88168e+06 9.88253e+06 9.88339e+06 9.88427e+06 9.88517e+06 9.88609e+06 9.88703e+06 9.888e+06
          9.889e+06 9.89002e+06 9.89107e+06 9.89214e+06 9.89323e+06 9.89433e+06 9.89539e+06 9.89639e+06 9.89727e+06 9.89798e+06 9.8985e+06 9.89879e+06
          9.89886e+06 9.89871e+06 9.89834e+06 9.8978e+06 9.89746e+06 9.89701e+06 9.89648e+06 9.89588e+06 9.89522e+06 9.89451e+06 9.89379e+06 9.89307e+06
          9.89238e+06 9.89173e+06 9.89112e+06 9.89056e+06 9.89003e+06 9.88954e+06 9.88908e+06 9.8881e+06 9.88707e+06 9.88606e+06 9.88507e+06 9.88409e+06
          9.88312e+06 9.88217e+06 9.88122e+06 9.88028e+06 9.87935e+06 9.87843e+06 9.87751e+06 9.8766e+06 9.8757e+06 9.87481e+06 9.87392e+06 9.86768e+06
          9.86842e+06 9.86918e+06 9.86993e+06 9.8707e+06 9.87147e+06 9.87225e+06 9.87304e+06 9.87383e+06 9.87464e+06 9.87546e+06 9.87629e+06 9.87713e+06
          9.87799e+06 9.87886e+06 9.87975e+06 9.88066e+06 9.88158e+06 9.88252e+06 9.88348e+06 9.88446e+06 9.88544e+06 9.88642e+06 9.88739e+06 9.88832e+06
          9.88917e+06 9.88992e+06 9.89053e+06 9.89098e+06 9.89126e+06 9.89134e+06 9.89125e+06 9.89099e+06 9.89059e+06 9.89032e+06 9.88995e+06 9.88951e+06
          9.88899e+06 9.88843e+06 9.88782e+06 9.8872e+06 9.88657e+06 9.88596e+06 9.88537e+06 9.8848e+06 9.88427e+06 9.88376e+06 9.88329e+06 9.88284e+06
          9.88188e+06 9.88086e+06 9.87986e+06 9.87888e+06 9.87791e+06 9.87695e+06 9.876e+06 9.87506e+06 9.87413e+06 9.87321e+06 9.87229e+06 9.87138e+06
          9.87047e+06 9.86958e+06 9.86868e+06 9.86779e+06 9.86154e+06 9.86229e+06 9.86303e+06 9.86378e+06 9.86454e+06 9.8653e+06 9.86607e+06 9.86685e+06
          9.86763e+06 9.86842e+06 9.86922e+06 9.87004e+06 9.87086e+06 9.87169e+06 9.87254e+06 9.87339e+06 9.87426e+06 9.87514e+06 9.87604e+06 9.87694e+06
          9.87784e+06 9.87874e+06 9.87963e+06 9.88049e+06 9.88131e+06 9.88205e+06 9.8827e+06 9.88324e+06 9.88364e+06 9.8839e+06 9.88401e+06 9.88397e+06
          9.88379e+06 9.88349e+06 9.88327e+06 9.88297e+06 9.8826e+06 9.88216e+06 9.88168e+06 9.88115e+06 9.88061e+06 9.88006e+06 9.87951e+06 9.87897e+06
          9.87845e+06 9.87795e+06 9.87747e+06 9.87701e+06 9.87658e+06 9.87563e+06 9.87464e+06 9.87365e+06 9.87268e+06 9.87172e+06 9.87077e+06 9.86983e+06
          9.8689e+06 9.86798e+06 9.86706e+06 9.86614e+06 9.86524e+06 9.86434e+06 9.86344e+06 9.86255e+06 9.86166e+06 9.85541e+06 9.85614e+06 9.85688e+06
          9.85763e+06 9.85837e+06 9.85913e+06 9.85988e+06 9.86065e+06 9.86142e+06 9.8622e+06 9.86298e+06 9.86377e+06 9.86457e+06 9.86538e+06 9.8662e+06
          9.86702e+06 9.86786e+06 9.86869e+06 9.86954e+06 9.87038e+06 9.87122e+06 9.87205e+06 9.87286e+06 9.87364e+06 9.87437e+06 9.87503e+06 9.87561e+06
          9.87609e+06 9.87646e+06 9.8767e+06 9.87682e+06 9.87682e+06 9.8767e+06 9.87648e+06 9.87631e+06 9.87606e+06 9.87575e+06 9.87538e+06 9.87496e+06
          9.87451e+06 9.87403e+06 9.87354e+06 9.87305e+06 9.87256e+06 9.87208e+06 9.87161e+06 9.87115e+06 9.87072e+06 9.87029e+06 9.86937e+06 9.86839e+06
          9.86742e+06 9.86646e+06 9.86552e+06 9.86458e+06 9.86365e+06 9.86273e+06 9.86181e+06 9.8609e+06 9.85999e+06 9.85909e+06 9.8582e+06 9.8573e+06
          9.85642e+06 9.85553e+06 9.84927e+06 9.85e+06 9.85073e+06 9.85147e+06 9.8522e+06 9.85295e+06 9.85369e+06 9.85444e+06 9.8552e+06 9.85596e+06
          9.85673e+06 9.8575e+06 9.85828e+06 9.85906e+06 9.85985e+06 9.86064e+06 9.86144e+06 9.86224e+06 9.86304e+06 9.86383e+06 9.86462e+06 9.86538e+06
          9.86612e+06 9.86683e+06 9.86749e+06 9.86809e+06 9.86861e+06 9.86905e+06 9.86939e+06 9.86963e+06 9.86976e+06 9.86979e+06 9.86972e+06 9.86956e+06
          9.86942e+06 9.86922e+06 9.86896e+06 9.86864e+06 9.86828e+06 9.86788e+06 9.86746e+06 9.86703e+06 9.86658e+06 9.86613e+06 9.86569e+06 9.86525e+06
          9.86482e+06 9.8644e+06 9.86399e+06 9.86309e+06 9.86213e+06 9.86118e+06 9.86024e+06 9.85931e+06 9.85838e+06 9.85746e+06 9.85655e+06 9.85564e+06
          9.85474e+06 9.85384e+06 9.85294e+06 9.85205e+06 9.85116e+06 9.85028e+06 9.84939e+06 9.84313e+06 9.84386e+06 9.84458e+06 9.8453e+06 9.84603e+06
          9.84676e+06 9.8475e+06 9.84823e+06 9.84897e+06 9.84972e+06 9.85047e+06 9.85122e+06 9.85198e+06 9.85274e+06 9.8535e+06 9.85426e+06 9.85503e+06
          9.85579e+06 9.85654e+06 9.85729e+06 9.85802e+06 9.85874e+06 9.85942e+06 9.86007e+06 9.86068e+06 9.86122e+06 9.8617e+06 9.86211e+06 9.86243e+06
          9.86266e+06 9.8628e+06 9.86286e+06 9.86283e+06 9.86272e+06 9.86261e+06 9.86244e+06 9.86222e+06 9.86194e+06 9.86163e+06 9.86128e+06 9.86091e+06
          9.86052e+06 9.86012e+06 9.85971e+06 9.8593e+06 9.85888e+06 9.85848e+06 9.85807e+06 9.85768e+06 9.8568e+06 9.85586e+06 9.85493e+06 9.85401e+06
          9.85309e+06 9.85218e+06 9.85127e+06 9.85036e+06 9.84946e+06 9.84857e+06 9.84768e+06 9.84679e+06 9.8459e+06 9.84502e+06 9.84414e+06 9.84326e+06
          9.837e+06 9.83771e+06 9.83842e+06 9.83914e+06 9.83985e+06 9.84057e+06 9.8413e+06 9.84202e+06 9.84274e+06 9.84347e+06 9.84421e+06 9.84494e+06
          9.84567e+06 9.84641e+06 9.84715e+06 9.84788e+06 9.84861e+06 9.84934e+06 9.85006e+06 9.85076e+06 9.85145e+06 9.85212e+06 9.85276e+06 9.85336e+06
          9.85392e+06 9.85442e+06 9.85487e+06 9.85525e+06 9.85555e+06 9.85578e+06 9.85593e+06 9.85601e+06 9.85601e+06 9.85594e+06 9.85586e+06 9.85572e+06
          9.85553e+06 9.85529e+06 9.85502e+06 9.85471e+06 9.85438e+06 9.85403e+06 9.85366e+06 9.85328e+06 9.8529e+06 9.85251e+06 9.85213e+06 9.85174e+06
          9.85136e+06 9.8505e+06 9.84959e+06 9.84868e+06 9.84777e+06 9.84686e+06 9.84596e+06 9.84507e+06 9.84418e+06 9.84329e+06 9.8424e+06 9.84152e+06
          9.84063e+06 9.83976e+06 9.83888e+06 9.838e+06 9.83712e+06 9.83086e+06 9.83156e+06 9.83226e+06 9.83297e+06 9.83368e+06 9.83438e+06 9.83509e+06
          9.8358e+06 9.83651e+06 9.83723e+06 9.83794e+06 9.83866e+06 9.83937e+06 9.84008e+06 9.84079e+06 9.8415e+06 9.8422e+06 9.8429e+06 9.84358e+06
          9.84425e+06 9.8449e+06 9.84553e+06 9.84613e+06 9.84669e+06 9.84721e+06 9.84768e+06 9.8481e+06 9.84846e+06 9.84875e+06 9.84898e+06 9.84914e+06
          9.84923e+06 9.84926e+06 9.84922e+06 9.84916e+06 9.84904e+06 9.84888e+06 9.84868e+06 9.84844e+06 9.84817e+06 9.84787e+06 9.84755e+06 9.84721e+06
          9.84686e+06 9.84651e+06 9.84614e+06 9.84578e+06 9.8454e+06 9.84503e+06 9.8442e+06 9.84331e+06 9.84242e+06 9.84153e+06 9.84064e+06 9.83975e+06
          9.83887e+06 9.83798e+06 9.8371e+06 9.83623e+06 9.83535e+06 9.83448e+06 9.8336e+06 9.83273e+06 9.83186e+06 9.83099e+06 9.82472e+06 9.82541e+06
          9.8261e+06 9.8268e+06 9.8275e+06 9.82819e+06 9.82889e+06 9.82958e+06 9.83028e+06 9.83098e+06 9.83168e+06 9.83237e+06 9.83307e+06 9.83376e+06
          9.83444e+06 9.83513e+06 9.8358e+06 9.83647e+06 9.83712e+06 9.83776e+06 9.83837e+06 9.83897e+06 9.83953e+06 9.84006e+06 9.84055e+06 9.841e+06
          9.8414e+06 9.84174e+06 9.84202e+06 9.84225e+06 9.84242e+06 9.84252e+06 9.84257e+06 9.84256e+06 9.84251e+06 9.84241e+06 9.84228e+06 9.8421e+06
          9.84189e+06 9.84165e+06 9.84138e+06 9.84109e+06 9.84078e+06 9.84046e+06 9.84012e+06 9.83978e+06 9.83943e+06 9.83907e+06 9.83871e+06 9.8379e+06
          9.83703e+06 9.83616e+06 9.83528e+06 9.83441e+06 9.83354e+06 9.83266e+06 9.83179e+06 9.83092e+06 9.83005e+06 9.82918e+06 9.82832e+06 9.82745e+06
          9.82658e+06 9.82572e+06 9.82485e+06 9.81858e+06 9.81926e+06 9.81995e+06 9.82063e+06 9.82131e+06 9.822e+06 9.82268e+06 9.82336e+06 9.82405e+06
          9.82473e+06 9.82541e+06 9.82609e+06 9.82676e+06 9.82744e+06 9.8281e+06 9.82876e+06 9.82941e+06 9.83005e+06 9.83067e+06 9.83128e+06 9.83187e+06
          9.83243e+06 9.83297e+06 9.83347e+06 9.83394e+06 9.83436e+06 9.83474e+06 9.83507e+06 9.83535e+06 9.83558e+06 9.83575e+06 9.83587e+06 9.83594e+06
          9.83594e+06 9.83591e+06 9.83583e+06 9.83571e+06 9.83556e+06 9.83537e+06 9.83516e+06 9.83491e+06 9.83465e+06 9.83436e+06 9.83406e+06 9.83374e+06
          9.83342e+06 9.83308e+06 9.83274e+06 9.83239e+06 9.8316e+06 9.83075e+06 9.82989e+06 9.82904e+06 9.82818e+06 9.82732e+06 9.82646e+06 9.8256e+06
          9.82474e+06 9.82388e+06 9.82301e+06 9.82216e+06 9.8213e+06 9.82044e+06 9.81958e+06 9.81872e+06 9.81244e+06 9.81311e+06 9.81379e+06 9.81446e+06
          9.81513e+06 9.8158e+06 9.81648e+06 9.81715e+06 9.81782e+06 9.81848e+06 9.81915e+06 9.81981e+06 9.82047e+06 9.82112e+06 9.82177e+06 9.8224e+06
          9.82303e+06 9.82364e+06 9.82424e+06 9.82483e+06 9.82539e+06 9.82593e+06 9.82644e+06 9.82692e+06 9.82736e+06 9.82777e+06 9.82814e+06 9.82846e+06
          9.82873e+06 9.82896e+06 9.82914e+06 9.82927e+06 9.82935e+06 9.82937e+06 9.82935e+06 9.82928e+06 9.82918e+06 9.82905e+06 9.82888e+06 9.82869e+06
          9.82847e+06 9.82822e+06 9.82796e+06 9.82768e+06 9.82738e+06 9.82707e+06 9.82675e+06 9.82642e+06 9.82607e+06 9.8253e+06 9.82447e+06 9.82363e+06
          9.82279e+06 9.82195e+06 9.8211e+06 9.82025e+06 9.8194e+06 9.81855e+06 9.8177e+06 9.81685e+06 9.81599e+06 9.81514e+06 9.81429e+06 9.81344e+06
          9.81258e+06 9.8063e+06 9.80696e+06 9.80763e+06 9.80829e+06 9.80895e+06 9.80961e+06 9.81027e+06 9.81093e+06 9.81159e+06 9.81224e+06 9.81289e+06
          9.81354e+06 9.81418e+06 9.81481e+06 9.81544e+06 9.81606e+06 9.81666e+06 9.81726e+06 9.81783e+06 9.81839e+06 9.81893e+06 9.81945e+06 9.81994e+06
          9.8204e+06 9.82083e+06 9.82122e+06 9.82158e+06 9.82189e+06 9.82216e+06 9.82239e+06 9.82258e+06 9.82272e+06 9.82282e+06 9.82284e+06 9.82282e+06
          9.82278e+06 9.82269e+06 9.82257e+06 9.82242e+06 9.82225e+06 9.82204e+06 9.82182e+06 9.82157e+06 9.82131e+06 9.82102e+06 9.82073e+06 9.82042e+06
          9.8201e+06 9.81977e+06 9.81901e+06 9.8182e+06 9.81738e+06 9.81655e+06 9.81572e+06 9.81488e+06 9.81405e+06 9.81321e+06 9.81236e+06 9.81152e+06
          9.81068e+06 9.80983e+06 9.80899e+06 9.80814e+06 9.80729e+06 9.80645e+06 9.80016e+06 9.80081e+06 9.80147e+06 9.80212e+06 9.80277e+06 9.80342e+06
          9.80407e+06 9.80472e+06 9.80536e+06 9.806e+06 9.80664e+06 9.80727e+06 9.80789e+06 9.80851e+06 9.80912e+06 9.80972e+06 9.8103e+06 9.81088e+06
          9.81144e+06 9.81198e+06 9.8125e+06 9.813e+06 9.81347e+06 9.81392e+06 9.81433e+06 9.81471e+06 9.81506e+06 9.81537e+06 9.81564e+06 9.81587e+06
          9.81606e+06 9.81621e+06 9.81632e+06 9.81635e+06 9.81634e+06 9.8163e+06 9.81623e+06 9.81613e+06 9.81599e+06 9.81583e+06 9.81565e+06 9.81544e+06
          9.8152e+06 9.81495e+06 9.81469e+06 9.8144e+06 9.8141e+06 9.81379e+06 9.81347e+06 9.81273e+06 9.81194e+06 9.81113e+06 9.81032e+06 9.8095e+06
          9.80867e+06 9.80785e+06 9.80702e+06 9.80618e+06 9.80535e+06 9.80451e+06 9.80367e+06 9.80283e+06 9.80199e+06 9.80115e+06 9.80031e+06 9.79402e+06
          9.79467e+06 9.79531e+06 9.79595e+06 9.79659e+06 9.79723e+06 9.79787e+06 9.7985e+06 9.79914e+06 9.79976e+06 9.80038e+06 9.801e+06 9.80161e+06
          9.80222e+06 9.80281e+06 9.80339e+06 9.80396e+06 9.80452e+06 9.80506e+06 9.80559e+06 9.80609e+06 9.80657e+06 9.80703e+06 9.80746e+06 9.80787e+06
          9.80824e+06 9.80858e+06 9.80888e+06 9.80915e+06 9.80938e+06 9.80958e+06 9.80974e+06 9.80986e+06 9.80989e+06 9.80989e+06 9.80986e+06 9.8098e+06
          9.80971e+06 9.80959e+06 9.80944e+06 9.80927e+06 9.80908e+06 9.80886e+06 9.80862e+06 9.80836e+06 9.80809e+06 9.8078e+06 9.8075e+06 9.80718e+06
          9.80646e+06 9.80568e+06 9.80489e+06 9.80408e+06 9.80328e+06 9.80246e+06 9.80165e+06 9.80082e+06 9.8e+06 9.79917e+06 9.79834e+06 9.79751e+06
          9.79668e+06 9.79584e+06 9.79501e+06 9.79417e+06 9.78788e+06 9.78852e+06 9.78915e+06 9.78978e+06 9.79042e+06 9.79104e+06 9.79167e+06 9.7923e+06
          9.79292e+06 9.79353e+06 9.79414e+06 9.79474e+06 9.79534e+06 9.79593e+06 9.79651e+06 9.79708e+06 9.79763e+06 9.79818e+06 9.7987e+06 9.79921e+06
          9.7997e+06 9.80017e+06 9.80062e+06 9.80104e+06 9.80143e+06 9.8018e+06 9.80213e+06 9.80243e+06 9.8027e+06 9.80293e+06 9.80313e+06 9.8033e+06
          9.80343e+06 9.80347e+06 9.80348e+06 9.80346e+06 9.80341e+06 9.80332e+06 9.80322e+06 9.80308e+06 9.80292e+06 9.80274e+06 9.80253e+06 9.8023e+06
          9.80206e+06 9.80179e+06 9.80151e+06 9.80122e+06 9.80091e+06 9.8002e+06 9.79943e+06 9.79865e+06 9.79786e+06 9.79706e+06 9.79626e+06 9.79545e+06
          9.79464e+06 9.79382e+06 9.793e+06 9.79218e+06 9.79135e+06 9.79053e+06 9.7897e+06 9.78887e+06 9.78804e+06 9.78174e+06 9.78237e+06 9.783e+06
          9.78362e+06 9.78424e+06 9.78486e+06 9.78548e+06 9.78609e+06 9.7867e+06 9.7873e+06 9.7879e+06 9.78849e+06 9.78908e+06 9.78965e+06 9.79022e+06
          9.79078e+06 9.79132e+06 9.79185e+06 9.79236e+06 9.79286e+06 9.79334e+06 9.79379e+06 9.79423e+06 9.79464e+06 9.79502e+06 9.79538e+06 9.79571e+06
          9.79601e+06 9.79628e+06 9.79652e+06 9.79672e+06 9.7969e+06 9.79704e+06 9.79708e+06 9.7971e+06 9.79708e+06 9.79704e+06 9.79697e+06 9.79687e+06
          9.79674e+06 9.79659e+06 9.79642e+06 9.79622e+06 9.796e+06 9.79577e+06 9.79551e+06 9.79524e+06 9.79495e+06 9.79465e+06 9.79395e+06 9.79319e+06
          9.79242e+06 9.79164e+06 9.79086e+06 9.79006e+06 9.78926e+06 9.78846e+06 9.78764e+06 9.78683e+06 9.78602e+06 9.7852e+06 9.78437e+06 9.78355e+06
          9.78273e+06 9.7819e+06 9.77561e+06 9.77622e+06 9.77684e+06 9.77746e+06 9.77807e+06 9.77868e+06 9.77929e+06 9.77989e+06 9.78049e+06 9.78108e+06
          9.78167e+06 9.78225e+06 9.78282e+06 9.78339e+06 9.78394e+06 9.78449e+06 9.78502e+06 9.78553e+06 9.78604e+06 9.78652e+06 9.78699e+06 9.78744e+06
          9.78786e+06 9.78827e+06 9.78864e+06 9.789e+06 9.78933e+06 9.78962e+06 9.7899e+06 9.79014e+06 9.79035e+06 9.79053e+06 9.79067e+06 9.79072e+06
          9.79074e+06 9.79074e+06 9.7907e+06 9.79064e+06 9.79054e+06 9.79043e+06 9.79029e+06 9.79012e+06 9.78993e+06 9.78972e+06 9.7895e+06 9.78925e+06
          9.78898e+06 9.7887e+06 9.7884e+06 9.78771e+06 9.78697e+06 9.78621e+06 9.78544e+06 9.78466e+06 9.78387e+06 9.78308e+06 9.78228e+06 9.78147e+06
          9.78066e+06 9.77985e+06 9.77904e+06 9.77822e+06 9.77741e+06 9.77659e+06 9.77577e+06 9.76947e+06 9.77008e+06 9.77069e+06 9.77129e+06 9.7719e+06
          9.7725e+06 9.7731e+06 9.77369e+06 9.77428e+06 9.77487e+06 9.77544e+06 9.77602e+06 9.77658e+06 9.77713e+06 9.77768e+06 9.77821e+06 9.77873e+06
          9.77924e+06 9.77973e+06 9.7802e+06 9.78066e+06 9.7811e+06 9.78152e+06 9.78192e+06 9.78229e+06 9.78264e+06 9.78297e+06 9.78327e+06 9.78354e+06
          9.78378e+06 9.784e+06 9.78419e+06 9.78434e+06 9.78439e+06 9.78442e+06 9.78442e+06 9.78439e+06 9.78433e+06 9.78425e+06 9.78414e+06 9.78401e+06
          9.78385e+06 9.78367e+06 9.78347e+06 9.78324e+06 9.783e+06 9.78274e+06 9.78246e+06 9.78217e+06 9.78149e+06 9.78075e+06 9.78e+06 9.77924e+06
          9.77846e+06 9.77768e+06 9.7769e+06 9.7761e+06 9.7753e+06 9.7745e+06 9.7737e+06 9.77289e+06 9.77208e+06 9.77126e+06 9.77045e+06 9.76963e+06
          9.76333e+06 9.76393e+06 9.76454e+06 9.76513e+06 9.76573e+06 9.76632e+06 9.76692e+06 9.7675e+06 9.76808e+06 9.76866e+06 9.76923e+06 9.76979e+06
          9.77034e+06 9.77089e+06 9.77142e+06 9.77194e+06 9.77245e+06 9.77295e+06 9.77344e+06 9.7739e+06 9.77435e+06 9.77478e+06 9.7752e+06 9.77559e+06
          9.77596e+06 9.77631e+06 9.77664e+06 9.77694e+06 9.77721e+06 9.77746e+06 9.77768e+06 9.77787e+06 9.77804e+06 9.77809e+06 9.77812e+06 9.77813e+06
          9.7781e+06 9.77805e+06 9.77798e+06 9.77788e+06 9.77775e+06 9.7776e+06 9.77742e+06 9.77723e+06 9.77701e+06 9.77678e+06 9.77652e+06 9.77625e+06
          9.77596e+06 9.77528e+06 9.77455e+06 9.7738e+06 9.77305e+06 9.77228e+06 9.7715e+06 9.77072e+06 9.76993e+06 9.76914e+06 9.76834e+06 9.76754e+06
          9.76674e+06 9.76593e+06 9.76512e+06 9.76431e+06 9.7635e+06 9.7572e+06 9.75779e+06 9.75838e+06 9.75898e+06 9.75957e+06 9.76015e+06 9.76074e+06
          9.76131e+06 9.76189e+06 9.76246e+06 9.76302e+06 9.76357e+06 9.76411e+06 9.76465e+06 9.76518e+06 9.76569e+06 9.76619e+06 9.76668e+06 9.76716e+06
          9.76762e+06 9.76806e+06 9.76849e+06 9.7689e+06 9.76929e+06 9.76966e+06 9.77e+06 9.77033e+06 9.77063e+06 9.77091e+06 9.77116e+06 9.77139e+06
          9.77159e+06 9.77176e+06 9.77182e+06 9.77186e+06 9.77186e+06 9.77185e+06 9.7718e+06 9.77173e+06 9.77164e+06 9.77152e+06 9.77137e+06 9.7712e+06
          9.77101e+06 9.7708e+06 9.77057e+06 9.77032e+06 9.77004e+06 9.76976e+06 9.76909e+06 9.76836e+06 9.76762e+06 9.76687e+06 9.7661e+06 9.76533e+06
          9.76455e+06 9.76377e+06 9.76298e+06 9.76219e+06 9.76139e+06 9.76059e+06 9.75978e+06 9.75898e+06 9.75817e+06 9.75736e+06 9.75106e+06 9.75165e+06
          9.75224e+06 9.75282e+06 9.7534e+06 9.75398e+06 9.75456e+06 9.75513e+06 9.7557e+06 9.75626e+06 9.75681e+06 9.75736e+06 9.7579e+06 9.75842e+06
          9.75894e+06 9.75945e+06 9.75994e+06 9.76043e+06 9.7609e+06 9.76135e+06 9.76179e+06 9.76221e+06 9.76262e+06 9.763e+06 9.76337e+06 9.76372e+06
          9.76404e+06 9.76435e+06 9.76463e+06 9.76489e+06 9.76512e+06 9.76533e+06 9.76551e+06 9.76557e+06 9.76562e+06 9.76563e+06 9.76562e+06 9.76558e+06
          9.76551e+06 9.76542e+06 9.76531e+06 9.76517e+06 9.765e+06 9.76482e+06 9.76461e+06 9.76438e+06 9.76413e+06 9.76386e+06 9.76357e+06 9.76291e+06
          9.76218e+06 9.76144e+06 9.7607e+06 9.75994e+06 9.75917e+06 9.75839e+06 9.75761e+06 9.75682e+06 9.75603e+06 9.75524e+06 9.75444e+06 9.75364e+06
          9.75284e+06 9.75204e+06 9.75123e+06 9.74492e+06 9.74551e+06 9.74609e+06 9.74667e+06 9.74725e+06 9.74782e+06 9.74839e+06 9.74896e+06 9.74952e+06
          9.75007e+06 9.75062e+06 9.75116e+06 9.75169e+06 9.75221e+06 9.75272e+06 9.75322e+06 9.75371e+06 9.75419e+06 9.75465e+06 9.7551e+06 9.75553e+06
          9.75595e+06 9.75635e+06 9.75674e+06 9.7571e+06 9.75745e+06 9.75778e+06 9.75809e+06 9.75837e+06 9.75864e+06 9.75888e+06 9.7591e+06 9.75929e+06
          9.75936e+06 9.7594e+06 9.75942e+06 9.75941e+06 9.75938e+06 9.75932e+06 9.75923e+06 9.75912e+06 9.75899e+06 9.75883e+06 9.75864e+06 9.75844e+06
          9.75821e+06 9.75796e+06 9.75769e+06 9.75741e+06 9.75674e+06 9.75602e+06 9.75528e+06 9.75453e+06 9.75378e+06 9.75301e+06 9.75224e+06 9.75146e+06
          9.75067e+06 9.74988e+06 9.74909e+06 9.7483e+06 9.7475e+06 9.7467e+06 9.7459e+06 9.7451e+06 9.73879e+06 9.73937e+06 9.73994e+06 9.74052e+06
          9.74109e+06 9.74166e+06 9.74222e+06 9.74278e+06 9.74334e+06 9.74389e+06 9.74443e+06 9.74496e+06 9.74548e+06 9.746e+06 9.74651e+06 9.747e+06
          9.74749e+06 9.74796e+06 9.74842e+06 9.74886e+06 9.74929e+06 9.74971e+06 9.75011e+06 9.75049e+06 9.75086e+06 9.75121e+06 9.75154e+06 9.75185e+06
          9.75214e+06 9.75241e+06 9.75266e+06 9.75289e+06 9.75309e+06 9.75316e+06 9.75321e+06 9.75324e+06 9.75324e+06 9.75321e+06 9.75315e+06 9.75307e+06
          9.75296e+06 9.75283e+06 9.75267e+06 9.75249e+06 9.75229e+06 9.75206e+06 9.75182e+06 9.75155e+06 9.75126e+06 9.75059e+06 9.74987e+06 9.74913e+06
          9.74838e+06 9.74762e+06 9.74686e+06 9.74609e+06 9.74531e+06 9.74453e+06 9.74374e+06 9.74295e+06 9.74216e+06 9.74136e+06 9.74056e+06 9.73976e+06
          9.73896e+06 9.73265e+06 9.73323e+06 9.7338e+06 9.73437e+06 9.73494e+06 9.7355e+06 9.73606e+06 9.73662e+06 9.73717e+06 9.73771e+06 9.73825e+06
          9.73877e+06 9.73929e+06 9.7398e+06 9.7403e+06 9.7408e+06 9.74128e+06 9.74174e+06 9.7422e+06 9.74264e+06 9.74307e+06 9.74348e+06 9.74388e+06
          9.74426e+06 9.74463e+06 9.74498e+06 9.74531e+06 9.74563e+06 9.74593e+06 9.74621e+06 9.74647e+06 9.74671e+06 9.74692e+06 9.747e+06 9.74705e+06
          9.74708e+06 9.74708e+06 9.74706e+06 9.74701e+06 9.74693e+06 9.74683e+06 9.7467e+06 9.74654e+06 9.74636e+06 9.74616e+06 9.74594e+06 9.74569e+06
          9.74542e+06 9.74513e+06 9.74446e+06 9.74373e+06 9.74299e+06 9.74224e+06 9.74148e+06 9.74071e+06 9.73994e+06 9.73916e+06 9.73838e+06 9.7376e+06
          9.73681e+06 9.73602e+06 9.73522e+06 9.73443e+06 9.73363e+06 9.73283e+06 9.72652e+06 9.72709e+06 9.72766e+06 9.72823e+06 9.72879e+06 9.72935e+06
          9.72991e+06 9.73046e+06 9.731e+06 9.73154e+06 9.73207e+06 9.7326e+06 9.73311e+06 9.73362e+06 9.73411e+06 9.7346e+06 9.73508e+06 9.73554e+06
          9.73599e+06 9.73643e+06 9.73685e+06 9.73727e+06 9.73766e+06 9.73805e+06 9.73841e+06 9.73877e+06 9.7391e+06 9.73943e+06 9.73973e+06 9.74002e+06
          9.74029e+06 9.74055e+06 9.74077e+06 9.74085e+06 9.74092e+06 9.74095e+06 9.74096e+06 9.74094e+06 9.7409e+06 9.74082e+06 9.74072e+06 9.74059e+06
          9.74044e+06 9.74026e+06 9.74006e+06 9.73983e+06 9.73958e+06 9.73931e+06 9.73902e+06 9.73834e+06 9.73761e+06 9.73686e+06 9.73611e+06 9.73534e+06
          9.73458e+06 9.7338e+06 9.73303e+06 9.73224e+06 9.73146e+06 9.73067e+06 9.72988e+06 9.72909e+06 9.7283e+06 9.7275e+06 9.7267e+06 9.72039e+06
          9.72096e+06 9.72152e+06 9.72209e+06 9.72265e+06 9.72321e+06 9.72376e+06 9.7243e+06 9.72485e+06 9.72538e+06 9.72591e+06 9.72643e+06 9.72694e+06
          9.72744e+06 9.72793e+06 9.72842e+06 9.72889e+06 9.72935e+06 9.7298e+06 9.73023e+06 9.73066e+06 9.73107e+06 9.73146e+06 9.73185e+06 9.73222e+06
          9.73257e+06 9.73291e+06 9.73324e+06 9.73355e+06 9.73385e+06 9.73414e+06 9.7344e+06 9.73464e+06 9.73474e+06 9.7348e+06 9.73485e+06 9.73486e+06
          9.73485e+06 9.73481e+06 9.73474e+06 9.73464e+06 9.73452e+06 9.73436e+06 9.73418e+06 9.73398e+06 9.73375e+06 9.7335e+06 9.73322e+06 9.73292e+06
          9.73224e+06 9.73149e+06 9.73074e+06 9.72998e+06 9.72921e+06 9.72844e+06 9.72767e+06 9.72689e+06 9.72611e+06 9.72532e+06 9.72454e+06 9.72375e+06
          9.72296e+06 9.72216e+06 9.72137e+06 9.72057e+06 9.71426e+06 9.71482e+06 9.71539e+06 9.71595e+06 9.71651e+06 9.71706e+06 9.71761e+06 9.71816e+06
          9.71869e+06 9.71922e+06 9.71975e+06 9.72026e+06 9.72077e+06 9.72127e+06 9.72176e+06 9.72224e+06 9.72271e+06 9.72317e+06 9.72362e+06 9.72405e+06
          9.72447e+06 9.72488e+06 9.72528e+06 9.72566e+06 9.72603e+06 9.72639e+06 9.72674e+06 9.72707e+06 9.72739e+06 9.7277e+06 9.728e+06 9.72828e+06
          9.72854e+06 9.72864e+06 9.72872e+06 9.72877e+06 9.7288e+06 9.72879e+06 9.72875e+06 9.72868e+06 9.72859e+06 9.72846e+06 9.72831e+06 9.72813e+06
          9.72792e+06 9.72769e+06 9.72743e+06 9.72715e+06 9.72685e+06 9.72614e+06 9.72539e+06 9.72462e+06 9.72386e+06 9.72308e+06 9.72231e+06 9.72154e+06
          9.72076e+06 9.71998e+06 9.71919e+06 9.71841e+06 9.71762e+06 9.71683e+06 9.71603e+06 9.71524e+06 9.71444e+06 9.70812e+06 9.70869e+06 9.70926e+06
          9.70982e+06 9.71037e+06 9.71093e+06 9.71147e+06 9.71201e+06 9.71255e+06 9.71308e+06 9.7136e+06 9.71411e+06 9.71462e+06 9.71511e+06 9.7156e+06
          9.71608e+06 9.71654e+06 9.717e+06 9.71745e+06 9.71788e+06 9.7183e+06 9.71871e+06 9.7191e+06 9.71949e+06 9.71986e+06 9.72022e+06 9.72057e+06
          9.72091e+06 9.72124e+06 9.72156e+06 9.72187e+06 9.72218e+06 9.72246e+06 9.72258e+06 9.72267e+06 9.72273e+06 9.72276e+06 9.72275e+06 9.72272e+06
          9.72266e+06 9.72256e+06 9.72244e+06 9.72229e+06 9.7221e+06 9.7219e+06 9.72166e+06 9.72139e+06 9.7211e+06 9.72078e+06 9.72006e+06 9.71929e+06
          9.71851e+06 9.71774e+06 9.71696e+06 9.71618e+06 9.71541e+06 9.71463e+06 9.71385e+06 9.71306e+06 9.71228e+06 9.71149e+06 9.7107e+06 9.7099e+06
          9.70911e+06 9.70831e+06 9.70199e+06 9.70256e+06 9.70313e+06 9.70369e+06 9.70424e+06 9.70479e+06 9.70534e+06 9.70588e+06 9.70641e+06 9.70694e+06
          9.70746e+06 9.70797e+06 9.70847e+06 9.70896e+06 9.70945e+06 9.70993e+06 9.71039e+06 9.71084e+06 9.71129e+06 9.71172e+06 9.71214e+06 9.71255e+06
          9.71294e+06 9.71333e+06 9.7137e+06 9.71406e+06 9.71441e+06 9.71476e+06 9.71509e+06 9.71542e+06 9.71575e+06 9.71608e+06 9.7164e+06 9.71654e+06
          9.71664e+06 9.71672e+06 9.71675e+06 9.71675e+06 9.71672e+06 9.71666e+06 9.71656e+06 9.71644e+06 9.71629e+06 9.71611e+06 9.7159e+06 9.71566e+06
          9.71538e+06 9.71507e+06 9.71474e+06 9.71398e+06 9.71318e+06 9.7124e+06 9.71161e+06 9.71084e+06 9.71006e+06 9.70928e+06 9.7085e+06 9.70772e+06
          9.70694e+06 9.70615e+06 9.70536e+06 9.70457e+06 9.70378e+06 9.70298e+06 9.70218e+06 9.69587e+06 9.69644e+06 9.697e+06 9.69756e+06 9.69812e+06
          9.69867e+06 9.69921e+06 9.69975e+06 9.70028e+06 9.7008e+06 9.70132e+06 9.70183e+06 9.70233e+06 9.70282e+06 9.70331e+06 9.70378e+06 9.70425e+06
          9.7047e+06 9.70514e+06 9.70557e+06 9.70599e+06 9.7064e+06 9.7068e+06 9.70718e+06 9.70755e+06 9.70792e+06 9.70827e+06 9.70861e+06 9.70895e+06
          9.70929e+06 9.70962e+06 9.70997e+06 9.71034e+06 9.71053e+06 9.71066e+06 9.71074e+06 9.71078e+06 9.71078e+06 9.71075e+06 9.71069e+06 9.7106e+06
          9.71048e+06 9.71032e+06 9.71014e+06 9.70993e+06 9.70968e+06 9.7094e+06 9.70908e+06 9.70868e+06 9.70789e+06 9.70707e+06 9.70628e+06 9.70549e+06